# USER_LATT cell with dimension 1 x 1 x 1 and a = 1
      5183  atoms
         1  atom types

 0.   110.00000000000000  xlo xhi
 0.   110.00000000000000  ylo yhi
 0.   100.00000000000000  zlo zhi

Atoms

1 1    97.37430569999999    64.59188080000000    50.00000000000000
2 1    98.01564790000000    63.50804140000000    50.00000000000000
3 1    95.27819059999999    70.78371430000000    50.00000000000000
4 1    96.79743199999999    70.06816860000001    50.00000000000000
5 1    97.75920870000000    71.02041629999999    50.00000000000000
6 1   104.25441739999998    60.21706010000000    50.00000000000000
7 1   103.38936620000000    61.39203650000000    50.00000000000000
8 1   102.18010710000000    61.32441330000000    50.00000000000000
9 1   106.54820249999999    56.69792180000000    50.00000000000000
10 1   105.74763489999999    57.92670439999999    50.00000000000000
11 1    99.47603610000000    61.24223330000000    50.00000000000000
12 1    98.20690920000000    58.86511999999999    50.00000000000000
13 1    99.39245609999999    63.52913289999999    50.00000000000000
14 1   100.04236600000000    64.77933499999999    50.00000000000000
15 1   101.41104890000000    62.46981050000000    50.00000000000000
16 1   100.09394070000000    62.41911699999999    50.00000000000000
17 1    97.59259799999998    57.77176670000000    50.00000000000000
18 1   101.35065460000000    64.81494140000000    50.00000000000000
19 1   102.07295230000000    63.73362349999999    50.00000000000000
20 1    37.42920310000000    58.86739740000000    50.00000000000000
21 1    35.35369109999999    64.21635440000000    50.00000000000000
22 1    35.66480640000000    65.51017760000001    50.00000000000000
23 1    34.81673820000000    66.39079289999998    50.00000000000000
24 1    61.18197630000000    64.24298100000000    50.00000000000000
25 1   103.84741980000000    72.06065369999999    50.00000000000000
26 1   105.63118750000000    77.45264439999998    50.00000000000000
27 1    98.60861970000001    85.57928470000000    50.00000000000000
28 1    96.43758390000001    76.45657350000000    50.00000000000000
29 1    96.03829189999999    59.99908079999999    50.00000000000000
30 1    97.39270019999999    62.34117890000000    50.00000000000000
31 1    97.48587800000000    60.10225680000000    50.00000000000000
32 1    98.05582430000000    61.18102270000000    50.00000000000000
33 1    95.94211580000000    62.32233050000000    50.00000000000000
34 1    95.32118989999999    61.27058790000000    50.00000000000000
35 1    91.82008359999999    57.63742070000000    50.00000000000000
36 1    92.58769230000000    71.30882260000000    50.00000000000000
37 1    91.65161900000000    71.69673920000000    50.00000000000000
38 1    91.82106779999999    68.93223580000000    50.00000000000000
39 1    94.15814970000000    69.64943700000001    50.00000000000000
40 1    92.94345100000000    70.03817750000000    50.00000000000000
41 1    99.33293920000000    65.85239420000001    50.00000000000000
42 1    98.01679989999998    65.83007050000001    50.00000000000000
43 1    93.85233319999999    72.31144719999999    50.00000000000000
44 1    95.08113099999998    71.81066899999999    50.00000000000000
45 1    93.56758119999999    73.63129429999998    50.00000000000000
46 1    94.51765439999998    74.52596290000000    50.00000000000000
47 1    81.76021579999998    52.15484239999999    50.00000000000000
48 1    87.86853800000000    63.94921500000000    50.00000000000000
49 1    89.14431759999998    65.06629939999999    50.00000000000000
50 1    90.54116060000000    63.89457320000000    50.00000000000000
51 1   104.39266209999998    57.78764730000000    50.00000000000000
52 1   103.59948729999999    59.01069259999999    50.00000000000000
53 1   106.10994719999999    55.58437729999999    50.00000000000000
54 1   101.53392030000001    60.12726590000000    50.00000000000000
55 1   100.19383999999999    60.06270979999999    50.00000000000000
56 1    99.57796480000000    58.93087779999999    50.00000000000000
57 1   100.29955289999999    57.72579960000000    50.00000000000000
58 1   101.66860200000001    57.77875900000000    50.00000000000000
59 1   102.29203029999999    58.92937859999999    50.00000000000000
60 1   106.33737949999998    59.08437730000000    50.00000000000000
61 1   105.32889559999998    60.31689070000000    50.00000000000000
62 1    93.66945649999998    55.58407980000000    50.00000000000000
63 1    91.62534330000000    57.09797289999999    50.00000000000000
64 1    90.09721370000000    56.38334660000000    50.00000000000000
65 1    92.57006840000000    55.53410339999999    50.00000000000000
66 1    83.54451749999998    54.15456769999999    50.00000000000000
67 1    82.77165990000000    51.77743910000000    50.00000000000000
68 1    83.95195779999999    52.95032500000000    50.00000000000000
69 1    24.47797780000000     1.66652180000000    50.00000000000000
70 1    14.68387800000000   108.31404879999998    50.00000000000000
71 1    99.06246190000000    70.75059510000000    50.00000000000000
72 1   101.73402409999998    70.43289189999999    50.00000000000000
73 1   101.98526759999999    66.05265050000000    50.00000000000000
74 1   103.31278990000000    66.11550139999999    50.00000000000000
75 1    17.41159630000000   101.88153840000000    50.00000000000000
76 1     8.92712600000000   109.44138339999999    50.00000000000000
77 1    35.04935460000000    59.49133679999999    50.00000000000000
78 1    36.50214010000000    59.88343820000000    50.00000000000000
79 1    34.72092060000000    58.35125730000000    50.00000000000000
80 1    33.40642930000000    57.92821119999999    50.00000000000000
81 1    38.13746260000000    56.72574620000000    50.00000000000000
82 1    37.16734310000000    57.77774429999999    50.00000000000000
83 1    35.75490190000000    57.29904560000000    50.00000000000000
84 1    35.49357610000000    56.12600710000000    50.00000000000000
85 1    38.83155829999999    59.31956859999999    50.00000000000000
86 1    35.12509540000000    67.70143130000000    50.00000000000000
87 1    39.59479140000000    66.70700080000000    50.00000000000000
88 1    37.06050110000000    65.85524760000000    50.00000000000000
89 1    46.61671830000000    74.15943150000000    50.00000000000000
90 1    47.59730530000000    71.60477450000000    50.00000000000000
91 1    47.99806980000000    73.91552740000000    50.00000000000000
92 1    48.49317549999999    72.84678659999999    50.00000000000000
93 1    48.32505799999999    64.32146460000000    50.00000000000000
94 1    49.68408210000000    64.47650910000000    50.00000000000000
95 1    52.32801440000000    64.77143860000000    50.00000000000000
96 1    48.04064180000000    70.58358000000000    50.00000000000000
97 1    53.26657870000000    64.75289920000000    50.00000000000000
98 1    55.50920490000000    82.63478089999998    50.00000000000000
99 1    56.93788160000000    82.48954780000000    50.00000000000000
100 1    53.57123189999999    84.02312470000000    50.00000000000000
101 1    55.01890950000000    83.88069920000000    50.00000000000000
102 1    43.83850099999999    96.73968510000000    50.00000000000000
103 1    44.63483430000000    97.47002409999999    50.00000000000000
104 1    55.15597150000000    96.12888340000001    50.00000000000000
105 1    54.58283999999999    94.81484990000000    50.00000000000000
106 1    44.75217820000000    83.21811680000000    50.00000000000000
107 1    43.09456630000000    81.26367190000001    50.00000000000000
108 1    43.25825499999999    82.71730039999998    50.00000000000000
109 1    46.24090200000000    74.92723080000000    50.00000000000000
110 1    36.98981480000000    87.51840210000000    50.00000000000000
111 1    22.94005400000000    74.22071840000000    50.00000000000000
112 1    32.44284820000000    58.80071259999999    50.00000000000000
113 1    57.20417399999999    66.85465240000001    50.00000000000000
114 1    61.89571000000000    65.33568570000000    50.00000000000000
115 1    60.01173780000000    64.23880010000001    50.00000000000000
116 1    58.21249770000000    65.52694700000001    50.00000000000000
117 1    59.18497469999999    65.55097960000001    50.00000000000000
118 1    67.85919199999999    68.10618590000000    50.00000000000000
119 1    69.53191380000000    66.11471559999998    50.00000000000000
120 1    88.59073640000000    94.08421330000000    50.00000000000000
121 1   104.53282930000000    72.70329289999999    50.00000000000000
122 1   105.93193820000000    72.46073149999998    50.00000000000000
123 1   103.93790439999998    67.71692659999999    50.00000000000000
124 1   103.36627960000000    68.35952000000000    50.00000000000000
125 1   103.53721619999999    69.95233919999998    50.00000000000000
126 1   104.03752140000000    70.35557559999998    50.00000000000000
127 1   106.36687469999998    71.24337769999998    50.00000000000000
128 1   105.48101049999998    70.08108520000000    50.00000000000000
129 1   104.52436829999999    81.36978150000000    50.00000000000000
130 1   105.21663670000000    78.81272130000001    50.00000000000000
131 1   102.51917269999998    75.90039059999999    50.00000000000000
132 1   103.45535279999999    76.81060789999999    50.00000000000000
133 1   104.67704010000000    76.52683260000001    50.00000000000000
134 1   102.86596679999998    74.56224060000000    50.00000000000000
135 1   104.20172119999999    74.24460600000000    50.00000000000000
136 1   105.10607149999998    75.07878110000000    50.00000000000000
137 1   101.14628600000000    84.66590880000000    50.00000000000000
138 1    98.41210180000000    81.93246460000000    50.00000000000000
139 1    98.05077359999999    83.31697850000000    50.00000000000000
140 1    98.91944900000000    84.16712950000000    50.00000000000000
141 1   100.29724119999999    83.82978820000000    50.00000000000000
142 1    97.55964659999999    81.03794100000000    50.00000000000000
143 1    97.29594419999999    85.91131600000000    50.00000000000000
144 1    96.24501800000000    81.29959870000000    50.00000000000000
145 1   104.18443299999998    82.68148810000000    50.00000000000000
146 1   102.85499579999998    83.02610779999999    50.00000000000000
147 1   102.54053500000001    84.28109739999999    50.00000000000000
148 1    88.58631140000000    95.60410309999999    50.00000000000000
149 1    89.12183380000000    98.18923190000000    50.00000000000000
150 1    86.41098789999999    95.67094419999999    50.00000000000000
151 1    87.75069429999999    96.22446439999999    50.00000000000000
152 1    87.83086400000001    97.58020019999999    50.00000000000000
153 1    64.11569980000000   109.69492339999998    50.00000000000000
154 1    73.72361760000000    97.57637790000000    50.00000000000000
155 1    94.01786800000001    61.22410580000000    50.00000000000000
156 1    93.30808260000001    60.05058669999999    50.00000000000000
157 1    91.06326289999998    63.95231639999999    50.00000000000000
158 1    92.17742160000000    62.51289369999999    50.00000000000000
159 1    93.19448850000001    62.57241819999999    50.00000000000000
160 1    90.47991179999998    71.07435610000000    50.00000000000000
161 1    88.56242369999998    72.26237490000000    50.00000000000000
162 1    89.09000399999998    72.38642880000000    50.00000000000000
163 1    87.90689100000000    70.42321020000000    50.00000000000000
164 1    89.12511440000000    65.69792180000000    50.00000000000000
165 1    90.14898679999999    66.69110869999999    50.00000000000000
166 1    99.96178439999998    67.06968689999999    50.00000000000000
167 1   101.19062810000000    67.26208500000000    50.00000000000000
168 1   101.60655980000000    68.13145450000000    50.00000000000000
169 1   101.02565000000000    69.41154480000000    50.00000000000000
170 1    98.86235060000000    68.42966460000000    50.00000000000000
171 1    99.55339819999999    69.49272160000000    50.00000000000000
172 1    96.86441040000000    69.32648469999999    50.00000000000000
173 1    98.19467160000001    68.31233979999999    50.00000000000000
174 1    97.39698790000000    66.78752140000000    50.00000000000000
175 1    76.53398900000001    56.65380480000000    50.00000000000000
176 1    76.17625429999998    57.62611390000000    50.00000000000000
177 1    76.79967499999998    59.96308520000000    50.00000000000000
178 1    77.20172880000000    58.80635450000000    50.00000000000000
179 1    82.55832669999999    57.99205780000000    50.00000000000000
180 1    82.96770480000001    56.78413009999999    50.00000000000000
181 1    87.44638059999998    61.75070570000000    50.00000000000000
182 1    88.26240540000001    62.66149520000000    50.00000000000000
183 1    87.87244420000000    60.39430239999999    50.00000000000000
184 1    89.54335020000001    62.44175720000000    50.00000000000000
185 1    70.78771979999999    60.12232969999999    50.00000000000000
186 1    86.08417510000000    61.99971400000000    50.00000000000000
187 1    51.91606900000000    21.44635010000000    50.00000000000000
188 1    54.55373770000000    21.34931760000000    50.00000000000000
189 1   103.81725309999999    56.65897369999999    50.00000000000000
190 1   104.47192389999998    55.54057700000000    50.00000000000000
191 1   103.87863919999999    54.31802369999999    50.00000000000000
192 1   102.37549590000000    56.59983069999999    50.00000000000000
193 1   101.75746160000000    55.43021399999999    50.00000000000000
194 1   102.41996770000000    54.31007770000000    50.00000000000000
195 1   105.95564280000001    66.42930610000001    50.00000000000000
196 1   107.29574590000000    68.73767090000000    50.00000000000000
197 1   105.14199829999998    67.73187260000000    50.00000000000000
198 1   105.97598279999998    68.93376920000000    50.00000000000000
199 1   104.04521939999999    65.18671420000000    50.00000000000000
200 1   105.20633699999999    65.21229550000000    50.00000000000000
201 1   104.09758760000000    62.71865470000000    50.00000000000000
202 1   103.33886720000000    63.76287460000000    50.00000000000000
203 1   107.95804600000000    60.58658979999999    50.00000000000000
204 1   107.25771330000001    59.24893570000000    50.00000000000000
205 1    94.32889560000000    56.58402250000000    50.00000000000000
206 1    95.61006930000001    56.65038300000000    50.00000000000000
207 1    96.23979190000000    57.70818710000000    50.00000000000000
208 1    95.51174170000000    59.00077060000000    50.00000000000000
209 1    93.56395719999999    57.97722639999999    50.00000000000000
210 1    93.97532660000000    58.85264600000000    50.00000000000000
211 1    96.35904689999998    55.37235260000000    50.00000000000000
212 1    91.19622040000000    58.81860350000000    50.00000000000000
213 1    89.79785159999999    58.97527700000000    50.00000000000000
214 1    89.28575899999998    60.19777299999999    50.00000000000000
215 1    91.97720339999999    60.10510639999999    50.00000000000000
216 1    91.32582859999998    61.23600390000000    50.00000000000000
217 1    90.10749819999999    61.34334950000000    50.00000000000000
218 1    83.50393680000001    59.05357360000000    50.00000000000000
219 1    85.25025180000000    61.13116070000000    50.00000000000000
220 1    87.09444430000001    59.47240829999999    50.00000000000000
221 1    85.67635350000000    59.74162290000000    50.00000000000000
222 1    84.80542760000000    58.77441409999999    50.00000000000000
223 1    84.52395629999998    50.33641050000000    50.00000000000000
224 1    84.85892499999999    49.26167680000000    50.00000000000000
225 1    83.12160489999999    50.74166110000000    50.00000000000000
226 1    88.39284520000000    54.30847170000000    50.00000000000000
227 1    86.85359200000001    51.07712170000000    50.00000000000000
228 1    85.48602300000000    51.45827870000000    50.00000000000000
229 1    85.12867740000000    52.58094029999999    50.00000000000000
230 1    87.78010560000000    52.10284810000000    50.00000000000000
231 1    86.18504329999999    53.67362220000000    50.00000000000000
232 1    87.42577360000000    53.32860950000000    50.00000000000000
233 1    25.38063620000000     3.79680060000000    50.00000000000000
234 1    24.31754490000000     3.00773020000000    50.00000000000000
235 1    26.64370920000000     3.23693900000000    50.00000000000000
236 1    23.37802510000000     0.87026420000000    50.00000000000000
237 1     1.51738070000000    49.57767490000000    50.00000000000000
238 1    29.89319620000000   104.45054629999998    50.00000000000000
239 1    28.90757180000000   103.55822760000000    50.00000000000000
240 1    17.02478600000000   104.55980680000000    50.00000000000000
241 1    13.78953840000000   107.76482389999998    50.00000000000000
242 1    15.79574680000000   107.86356359999999    50.00000000000000
243 1    18.16240500000000   106.66160590000000    50.00000000000000
244 1    15.97319320000000   106.34391020000000    50.00000000000000
245 1    16.86320300000000   105.85601040000000    50.00000000000000
246 1    19.09140590000000   108.85746779999999    50.00000000000000
247 1    17.96956840000000   108.10616300000000    50.00000000000000
248 1    16.88462840000000   108.56221770000001    50.00000000000000
249 1   107.94383240000001    70.95395659999998    50.00000000000000
250 1   108.31972500000001    70.03334810000000    50.00000000000000
251 1     6.80077650000000    62.25488279999999    50.00000000000000
252 1     3.34334640000000    58.88776399999999    50.00000000000000
253 1    14.96189220000000    72.07035830000000    50.00000000000000
254 1    13.66429710000000    71.79507450000000    50.00000000000000
255 1    21.49560550000000    73.92264559999998    50.00000000000000
256 1     8.95884140000000    80.38436129999998    50.00000000000000
257 1     8.29452520000000    77.76787569999999    50.00000000000000
258 1     5.05866810000000    83.08562470000000    50.00000000000000
259 1     6.05083470000000    92.16517639999998    50.00000000000000
260 1     7.33953380000000    91.69290930000000    50.00000000000000
261 1     6.61143400000000   101.89369960000001    50.00000000000000
262 1    10.12950900000000   109.13756560000000    50.00000000000000
263 1    12.55597020000000   108.20481869999999    50.00000000000000
264 1    10.51204590000000   107.64504239999999    50.00000000000000
265 1    11.62591080000000   107.43455509999998    50.00000000000000
266 1     9.71184920000000   106.90348059999998    50.00000000000000
267 1    14.76765830000000    95.43371579999999    50.00000000000000
268 1    15.86235060000000    96.27994540000000    50.00000000000000
269 1    15.60720540000000    97.64176179999998    50.00000000000000
270 1    14.42251110000000    98.08687590000000    50.00000000000000
271 1     5.84310300000000    93.50171659999999    50.00000000000000
272 1    13.33463290000000    97.20657350000000    50.00000000000000
273 1    13.61886500000000    95.84136959999998    50.00000000000000
274 1    15.22855380000000   100.29949950000000    50.00000000000000
275 1    14.16716670000000    99.43661499999999    50.00000000000000
276 1    17.54134560000000   100.64598090000000    50.00000000000000
277 1    16.50142860000000    99.79698180000000    50.00000000000000
278 1    16.69421010000000    98.51014710000000    50.00000000000000
279 1     9.18366620000000   101.11486050000001    50.00000000000000
280 1    33.12469860000000    56.62075049999999    50.00000000000000
281 1    34.12798310000000    55.68207550000000    50.00000000000000
282 1    40.78048330000000    62.20357130000000    50.00000000000000
283 1    39.13411709999999    60.49723060000000    50.00000000000000
284 1    40.44291690000000    60.88523860000000    50.00000000000000
285 1    41.47930150000000    64.80857090000001    50.00000000000000
286 1    47.32506940000000    69.39700320000000    50.00000000000000
287 1    47.62753680000000    68.59077460000000    50.00000000000000
288 1    43.19531249999999    66.56053930000000    50.00000000000000
289 1    41.06382370000000    67.06867980000000    50.00000000000000
290 1    41.82001120000000    66.32349399999998    50.00000000000000
291 1    40.14988710000000    64.51194000000000    50.00000000000000
292 1    39.30425260000000    65.33512120000000    50.00000000000000
293 1    37.91596600000000    64.99164580000000    50.00000000000000
294 1    39.81090550000000    63.10372929999999    50.00000000000000
295 1    49.78005600000000    72.63948819999999    50.00000000000000
296 1    52.45187760000000    72.33300019999999    50.00000000000000
297 1    49.49925620000000    68.25045780000001    50.00000000000000
298 1    51.33094789999999    66.16741180000000    50.00000000000000
299 1    49.43623349999999    66.72195440000000    50.00000000000000
300 1    50.21487050000000    66.01499939999999    50.00000000000000
301 1    56.53055960000000    96.20962530000000    50.00000000000000
302 1    51.93053060000000    85.91320039999999    50.00000000000000
303 1    53.14657970000000    85.86457820000000    50.00000000000000
304 1    53.49133300000000    86.17546079999998    50.00000000000000
305 1    51.09222410000000    87.22821050000000    50.00000000000000
306 1    51.81631470000000    88.42875669999999    50.00000000000000
307 1    49.17411040000000    85.94380200000001    50.00000000000000
308 1    49.95841980000000    87.17178350000000    50.00000000000000
309 1    45.41905599999999    82.62475590000000    50.00000000000000
310 1    41.24664310000000    92.07497410000001    50.00000000000000
311 1    42.41844180000000    90.85050199999999    50.00000000000000
312 1    44.40868760000000    98.93982699999999    50.00000000000000
313 1    54.44912720000000    97.12247470000000    50.00000000000000
314 1    53.03005979999999    99.41218569999999    50.00000000000000
315 1    52.40650939999999    98.05105589999999    50.00000000000000
316 1    53.09858700000000    97.06974030000001    50.00000000000000
317 1    49.25974269999999   101.32450869999998    50.00000000000000
318 1    52.21397400000000   100.44978340000000    50.00000000000000
319 1    51.10645680000000   100.38089750000000    50.00000000000000
320 1    50.20745090000000   101.43636320000000    50.00000000000000
321 1    48.49770740000000    99.95822139999999    50.00000000000000
322 1    53.59174349999999    87.94252019999999    50.00000000000000
323 1    52.91170120000000    88.56311040000000    50.00000000000000
324 1    49.05517579999999    88.47689819999999    50.00000000000000
325 1    47.23740010000000    90.56222539999999    50.00000000000000
326 1    47.74103930000000    88.23297119999999    50.00000000000000
327 1    46.89848720000000    89.17359920000000    50.00000000000000
328 1    55.27435690000000    93.82244880000000    50.00000000000000
329 1    56.86867520000000    91.64887240000000    50.00000000000000
330 1    42.36012649999999    97.22959899999998    50.00000000000000
331 1    41.39623260000000    96.24230960000000    50.00000000000000
332 1    40.08853150000000    96.68420409999999    50.00000000000000
333 1    29.65271760000000    91.69622810000000    50.00000000000000
334 1    38.64307410000000    83.33132940000000    50.00000000000000
335 1    38.44260410000000    82.10829930000000    50.00000000000000
336 1    42.23272710000000    89.78726200000000    50.00000000000000
337 1    42.32799530000000    83.47386170000000    50.00000000000000
338 1    42.51095580000000    84.86538700000000    50.00000000000000
339 1    39.98943340000000    83.84589400000000    50.00000000000000
340 1    41.00097270000000    82.98735820000000    50.00000000000000
341 1    46.14636610000000    77.51112369999998    50.00000000000000
342 1    47.22988130000000    76.49884799999998    50.00000000000000
343 1    44.66429899999999    76.71964269999998    50.00000000000000
344 1    45.02096939999999    75.29026799999998    50.00000000000000
345 1    42.69970320000000    74.94459540000000    50.00000000000000
346 1    43.93847660000000    74.36042019999999    50.00000000000000
347 1    34.02210240000000    72.08281710000000    50.00000000000000
348 1    34.60406120000000    74.67551419999999    50.00000000000000
349 1    30.15164380000000    70.99096680000000    50.00000000000000
350 1    31.49078370000000    71.31890869999999    50.00000000000000
351 1    35.30287550000000    78.58692170000000    50.00000000000000
352 1    34.86020660000000    75.96247859999998    50.00000000000000
353 1    40.81760790000000    76.87451940000000    50.00000000000000
354 1    36.76066970000000    86.40666960000000    50.00000000000000
355 1    37.82316970000000    85.44793700000000    50.00000000000000
356 1    37.61994170000000    84.24037929999999    50.00000000000000
357 1    36.26959610000000    83.72349550000000    50.00000000000000
358 1    32.29811100000000    88.18210600000000    50.00000000000000
359 1    32.26125720000000    86.85345460000001    50.00000000000000
360 1    30.01667400000000    82.48823549999999    50.00000000000000
361 1    29.14485930000000    83.22229010000000    50.00000000000000
362 1    25.87783060000000    79.72528079999999    50.00000000000000
363 1    21.15226750000000    72.57556920000000    50.00000000000000
364 1    19.39052200000000    70.88946540000001    50.00000000000000
365 1    19.72570800000000    72.28114320000000    50.00000000000000
366 1    23.56587600000000    59.20536419999999    50.00000000000000
367 1    67.25376890000000    82.57556150000001    50.00000000000000
368 1    68.18363189999999    82.27670290000000    50.00000000000000
369 1    65.84785460000001    81.29896549999998    50.00000000000000
370 1    65.91938780000000    80.68253329999999    50.00000000000000
371 1    60.44173430000000    77.55938720000000    50.00000000000000
372 1    61.33724599999999    78.81726080000000    50.00000000000000
373 1    75.50605010000000    82.83083349999998    50.00000000000000
374 1    75.41927339999999    84.28819280000000    50.00000000000000
375 1    77.61853790000001    78.30920410000000    50.00000000000000
376 1    76.04482269999998    80.15895080000000    50.00000000000000
377 1    76.27878570000000    78.74123390000000    50.00000000000000
378 1    57.63014610000000    71.78852850000000    50.00000000000000
379 1    60.33487699999999    71.53983310000000    50.00000000000000
380 1    53.67177969999999    72.19493869999999    50.00000000000000
381 1    56.40580750000000    71.91590119999999    50.00000000000000
382 1    55.83657460000000    73.24475860000000    50.00000000000000
383 1    54.51980589999999    73.39696499999999    50.00000000000000
384 1    56.15277099999999    69.45983130000000    50.00000000000000
385 1    55.39347840000000    68.68481450000000    50.00000000000000
386 1    55.62889480000000    70.96135719999999    50.00000000000000
387 1    54.23174290000000    71.10104370000001    50.00000000000000
388 1    56.38555910000000    66.77848820000000    50.00000000000000
389 1    55.47100069999999    67.55342869999998    50.00000000000000
390 1    55.62717820000000    65.14891050000000    50.00000000000000
391 1    53.98083120000000    65.51505280000001    50.00000000000000
392 1    53.86244200000000    66.74412540000000    50.00000000000000
393 1    59.12515640000000    77.75682830000000    50.00000000000000
394 1    56.41333769999999    77.90224460000000    50.00000000000000
395 1    58.52822120000000    72.94583140000000    50.00000000000000
396 1    59.70387650000000    72.80223090000000    50.00000000000000
397 1    61.91211320000000    62.97656260000000    50.00000000000000
398 1    63.64908600000000    52.17580800000000    50.00000000000000
399 1    61.64220049999999    53.40710069999999    50.00000000000000
400 1    62.98007979999999    53.39968490000000    50.00000000000000
401 1    57.99547580000000    68.03332519999999    50.00000000000000
402 1    57.33490370000000    69.32231899999999    50.00000000000000
403 1    59.41775130000000    70.36936190000000    50.00000000000000
404 1    58.27022550000000    70.49640660000000    50.00000000000000
405 1    63.25557329999999    65.32249450000000    50.00000000000000
406 1    59.95908360000000    66.66886900000000    50.00000000000000
407 1    61.22105789999999    66.63726050000000    50.00000000000000
408 1    60.06457520000000    69.09101109999999    50.00000000000000
409 1    59.27685930000000    67.98228460000000    50.00000000000000
410 1    59.22919850000000    63.04806900000000    50.00000000000000
411 1    64.15896610000000    71.11511229999999    50.00000000000000
412 1    61.47251890000000    71.40951540000000    50.00000000000000
413 1    65.23392490000001    71.01996610000000    50.00000000000000
414 1    66.97099300000001    69.63335420000000    50.00000000000000
415 1    65.95201880000000    69.64254000000000    50.00000000000000
416 1    80.67920690000000    96.81724550000000    50.00000000000000
417 1    74.79766850000000    96.78851320000000    50.00000000000000
418 1    76.02306369999999    86.98278059999998    50.00000000000000
419 1    76.95560459999999    80.92319500000001    50.00000000000000
420 1    76.82277680000000    82.27373510000000    50.00000000000000
421 1    77.79254149999998    83.00105290000000    50.00000000000000
422 1    76.97272500000000    86.28275300000000    50.00000000000000
423 1    76.95514679999999    84.93127440000001    50.00000000000000
424 1    77.72168730000000    84.34709169999998    50.00000000000000
425 1    89.42143249999999    91.63928989999999    50.00000000000000
426 1    86.27765660000000    94.31597900000000    50.00000000000000
427 1    87.48838050000001    93.48454289999999    50.00000000000000
428 1    65.73070530000000   107.57086180000000    50.00000000000000
429 1   106.25993349999999    79.79455570000000    50.00000000000000
430 1   105.93150340000000    81.04821010000001    50.00000000000000
431 1    95.70707709999999    93.54066469999999    50.00000000000000
432 1   106.40171820000000    91.90885939999998    50.00000000000000
433 1   105.77025610000000    89.70970159999999    50.00000000000000