ITEM: TIMESTEP
0
ITEM: NUMBER OF ATOMS
5183
ITEM: BOX BOUNDS pp pp pp
-3.5542542076441408e+00 1.1355425420764243e+02
-3.4614373467508472e+00 1.1346143734675107e+02
0.0000000000000000e+00 1.0000000000000000e+02
ITEM: ATOMS id type x y z f_5
621 1 15.622 3.95076 49.812 0
3264 1 14.1169 5.86203 49.9083 0
618 1 15.428 5.3318 49.7743 0
3260 1 12.5381 7.76781 49.8531 0
3263 1 13.8809 7.24541 49.7378 0
2316 1 12.3366 9.17841 49.819 0
2317 1 15.0278 8.1313 49.5956 0
2315 1 13.4782 10.0879 49.6512 0
2387 1 15.9323 10.4585 49.3818 0
2318 1 14.79 9.5433 49.4455 0
2310 1 14.4217 -3.31854 51.5265 0
2309 1 15.4301 -2.54801 50.9721 0
4537 1 -2.48351 -0.311966 51.5259 0
4031 1 14.0063 -0.57813 51.2624 0
1356 1 15.2353 -1.13084 50.8307 0
4538 1 -1.36416 0.720625 51.4308 0
4023 1 0.0829036 0.38131 51.5055 0
4543 1 1.14813 1.3843 51.4811 0
4035 1 12.5098 1.40236 51.2938 0
4030 1 13.801 0.80881 51.0356 0
4539 1 -2.8623 2.55459 51.5356 0
4540 1 -1.57835 2.23671 51.4299 0
4850 1 0.855485 2.83063 51.3539 0
4026 1 12.233 2.74059 50.9962 0
3266 1 14.8003 1.70787 50.5641 0
4849 1 -0.533674 3.25293 51.3698 0
4847 1 1.96868 3.79471 51.3734 0
4006 1 4.40422 4.32433 51.4147 0
4542 1 3.35308 3.35165 51.5477 0
3256 1 5.75733 3.8559 51.5111 0
3254 1 8.20285 4.29971 51.2499 0
4027 1 10.8611 3.26963 51.1543 0
3245 1 10.6139 4.64277 50.7901 0
3268 1 13.2747 3.62639 50.5357 0
3267 1 14.5834 3.10393 50.2852 0
4852 1 -0.719962 4.69411 51.4823 0
4851 1 0.361056 5.69265 51.2561 0
4848 1 1.7387 5.23428 51.2181 0
4009 1 2.82449 6.17556 51.0781 0
4008 1 4.14458 5.69117 51.2112 0
3243 1 6.57624 6.13511 50.9286 0
3255 1 6.87933 4.78597 51.1846 0
3244 1 9.26258 5.17832 50.895 0
3262 1 11.7142 5.54272 50.4176 0
3265 1 13.0171 5.02899 50.2926 0
4534 1 -2.33221 6.71641 51.3845 0
3246 1 -1.23246 7.64358 51.0516 0
3247 1 0.122545 7.13507 51.0734 0
4010 1 2.58095 7.55963 50.8477 0
4007 1 5.25316 6.63416 50.9554 0
4005 1 7.69345 7.05382 50.711 0
4000 1 9.05439 6.58018 50.6579 0
4003 1 10.1357 7.47552 50.3426 0
3261 1 11.4229 6.91343 50.1684 0
5128 1 -2.97197 8.97789 50.4936 0
5129 1 -1.57603 8.99286 50.5562 0
3248 1 1.19784 8.0528 50.8247 0
4011 1 0.934652 9.46632 50.5943 0
4546 1 3.65081 8.49571 50.7674 0
4548 1 5.00292 8.05978 50.778 0
4549 1 6.08576 8.92441 50.627 0
4004 1 7.47435 8.44874 50.5337 0
4001 1 8.57201 9.3353 50.3089 0
4002 1 9.90257 8.8554 50.2136 0
5130 1 -0.491908 10.008 50.4155 0
4013 1 2.05962 10.4119 50.4952 0
4545 1 3.39275 9.89867 50.6028 0
4547 1 4.48025 10.7688 50.4405 0
4550 1 5.85749 10.3398 50.4852 0
2311 1 8.39078 10.7386 50.1657 0
2314 1 11.0225 9.75314 50.0135 0
5052 1 -2.98201 -2.8099 51.7615 0
5053 1 -0.616299 -2.01937 51.8164 0
5055 1 -0.242767 -3.41785 51.9272 0
4019 1 2.18788 -2.74396 52.0341 0
4021 1 3.55566 -3.09126 52.0216 0
4020 1 4.58547 -2.11411 52.2183 0
4840 1 5.93827 -2.51602 52.4843 0
4839 1 8.22045 -1.97066 53.0095 0
3995 1 11.0277 -2.91571 53.1166 0
3228 1 13.2172 -2.74029 52.0755 0
5054 1 -2.0598 -1.69331 51.7472 0
4022 1 0.422056 -0.99406 51.7657 0
4024 1 1.79684 -1.3518 51.9096 0
4025 1 2.86231 -0.381686 51.9722 0
4018 1 4.21441 -0.731157 52.2115 0
4841 1 6.91169 -1.54214 52.6651 0
3996 1 9.35819 -1.1116 52.8471 0
3997 1 10.7219 -1.59616 52.8207 0
4033 1 11.7314 -0.765801 52.2771 0
4032 1 12.9263 -1.38972 51.8721 0
4544 1 2.49737 1.02609 51.7845 0
3258 1 5.2424 0.256785 52.2787 0
3227 1 6.60506 -0.140336 52.4365 0
4014 1 7.65152 0.739255 52.3902 0
4017 1 9.03321 0.24198 52.4626 0
4029 1 10.105 1.0984 52.0275 0
4034 1 11.4528 0.609645 51.9107 0
4541 1 3.53853 1.9906 51.8564 0
3257 1 6.01855 2.51577 51.9282 0
3259 1 4.93102 1.61613 52.0306 0
4015 1 7.37382 2.08033 52.0315 0
4016 1 8.4466 2.92092 51.6384 0
4028 1 9.78822 2.4986 51.6216 0
4536 1 -3.03725 4.76427 52.113 0
4535 1 -1.91576 5.33182 51.7983 0
1483 1 8.53488 -3.36206 53.2876 0
4843 1 -1.64447 18.2456 48.2162 0
4846 1 -0.267234 17.7479 48.2806 0
2294 1 0.835963 18.5993 48.105 0
3999 1 -1.84556 19.6695 47.9112 0
2283 1 -0.679502 20.4587 47.5541 0
2287 1 0.64696 19.9099 47.7075 0
2286 1 -0.492293 21.8667 47.7608 0
1368 1 0.878709 22.2384 48.0906 0
2290 1 1.54114 20.9699 47.9847 0
2285 1 -1.61135 22.534 48.3171 0
5127 1 -1.89219 12.0997 49.9319 0
2313 1 10.8204 11.1553 49.9846 0
3231 1 11.9428 12.0184 49.7899 0
3230 1 13.265 11.4857 49.6763 0
2388 1 15.7407 11.8485 49.4688 0
3234 1 14.3886 12.3585 49.5621 0
5051 1 -2.65794 13.109 49.6435 0
5045 1 0.299978 13.7645 49.9724 0
3239 1 2.72742 14.1755 49.8652 0
2301 1 9.25674 13.0527 49.946 0
2302 1 10.3875 13.9366 49.7364 0
3232 1 11.7574 13.4415 49.6969 0
3233 1 14.2495 13.7879 49.5552 0
3229 1 12.882 14.2932 49.613 0
5046 1 -0.798068 14.4578 49.6602 0
5047 1 -1.28583 15.6644 49.2059 0
5049 1 1.41508 14.6461 49.769 0
3242 1 3.87665 15.074 49.7083 0
3235 1 5.23811 14.5654 49.8989 0
3236 1 6.31865 15.4729 49.8425 0
2304 1 7.71599 14.9763 49.8636 0
2305 1 8.82392 15.895 49.7468 0
2303 1 10.153 15.3187 49.6921 0
2291 1 12.6462 15.7493 49.6125 0
4097 1 15.3608 14.7285 49.5318 0
4844 1 -2.76022 17.5111 48.683 0
4845 1 -2.63966 16.1476 49.0712 0
5050 1 1.24773 16.0479 49.3118 0
5048 1 -0.109496 16.4848 48.9322 0
3240 1 2.38438 16.9464 49.1106 0
3241 1 3.73172 16.5103 49.4582 0
3237 1 4.82153 17.4643 49.3809 0
3238 1 6.1748 16.9612 49.6331 0
2307 1 8.58609 17.334 49.7588 0
1354 1 11.049 17.6172 49.6105 0
2292 1 11.2793 16.2252 49.6472 0
1351 1 13.7759 16.666 49.5407 0
4098 1 15.1432 16.1687 49.5573 0
2293 1 2.14452 18.2292 48.5469 0
1352 1 4.57535 18.8873 49.1229 0
2306 1 7.25467 17.9218 49.716 0
1353 1 9.72274 18.1752 49.639 0
1350 1 12.232 18.5123 49.5719 0
1347 1 13.5762 18.063 49.5315 0
1348 1 14.6359 19.0222 49.6263 0
3998 1 -2.98082 20.3717 48.4483 0
2289 1 2.80834 20.6656 48.5163 0
2288 1 3.18413 19.2854 48.6962 0
2298 1 5.72535 19.8334 49.3974 0
2295 1 7.08042 19.3753 49.5937 0
2296 1 8.28493 20.3211 49.628 0
1346 1 10.7298 20.3172 49.3898 0
1345 1 9.54509 19.5845 49.4933 0
1349 1 11.9949 19.859 49.5784 0
1393 1 12.9399 20.8147 49.8412 0
1392 1 14.335 20.4749 49.8747 0
2284 1 -2.86828 21.8933 48.5576 0
644 1 3.48597 21.7847 48.877 0
2297 1 5.5422 21.1717 49.4851 0
3270 1 5.846 22.4559 49.6805 0
2299 1 8.29115 21.8747 49.7804 0
645 1 10.4751 21.5973 49.403 0
2493 1 -1.34529 23.808 48.9028 0
1367 1 1.1862 23.5259 48.6163 0
3271 1 2.47522 23.9648 49.1515 0
3272 1 3.59533 23.0838 49.1978 0
3275 1 4.85875 23.4674 49.6237 0
3269 1 7.25698 22.91 49.8247 0
646 1 9.64461 22.6049 49.646 0
1438 1 10.0261 23.9161 49.8407 0
2492 1 -2.51604 24.653 49.2181 0
2495 1 -0.00103338 24.3667 48.9766 0
2496 1 0.164063 25.7515 49.413 0
3273 1 2.64859 25.3309 49.4896 0
3274 1 3.98926 25.7297 49.8046 0
3276 1 5.13145 24.8536 49.7465 0
4041 1 7.48833 24.3574 49.8987 0
4036 1 6.4617 25.2997 49.98 0
1441 1 11.4696 24.3189 49.9491 0
1429 1 14.1976 25.4301 49.9622 0
5131 1 -0.688366 11.4447 50.1577 0
4842 1 0.466829 12.3682 50.192 0
4012 1 1.82688 11.8474 50.3247 0
3252 1 2.94281 12.7614 50.1766 0
3253 1 4.29259 12.2129 50.201 0
3250 1 7.04073 11.2057 50.2874 0
3251 1 6.79218 12.6564 50.1135 0
2312 1 9.46476 11.6457 50.0234 0
3249 1 5.45761 13.1585 50.0731 0
2300 1 7.93217 13.5704 50.0114 0
1390 1 12.5736 22.1012 50.0592 0
2382 1 15.4542 21.4533 50.0312 0
1391 1 12.6457 23.4588 50.0372 0
1389 1 14.0465 23.9326 50.0481 0
2383 1 15.2797 23.0011 50.1691 0
4040 1 8.91076 24.8376 50.001 0
4048 1 0.137989 38.525 48.3002 0
4054 1 -0.850277 39.5403 48.1825 0
2342 1 1.56389 38.8904 48.0917 0
2343 1 1.99785 40.1096 47.63 0
2491 1 -2.32629 26.0742 49.5112 0
1488 1 -3.46219 26.8258 49.9316 0
2494 1 -0.97989 26.6352 49.5295 0
2487 1 1.54297 26.2648 49.5407 0
2490 1 -0.800901 28.0016 49.8154 0
2489 1 0.549945 28.5086 49.93 0
2488 1 1.71658 27.6089 49.8638 0
1426 1 15.7445 27.465 49.911 0
2421 1 14.5431 28.3486 49.8174 0
2422 1 14.7162 29.8086 49.7736 0
2423 1 13.6399 30.7037 49.9807 0
2324 1 -1.19915 33.1242 49.9941 0
2446 1 15.1634 32.6918 49.8056 0
4055 1 -3.26206 35.2685 49.9797 0
2325 1 -0.883975 34.5073 49.6433 0
2320 1 0.502099 34.9893 49.5944 0
1430 1 2.97484 34.5547 49.9967 0
2455 1 15.4264 34.0872 49.784 0
1365 1 -1.93831 35.5355 49.4607 0
4050 1 -1.63156 36.8923 48.9844 0
1366 1 0.807706 36.3225 49.0621 0
650 1 2.14725 36.7686 49.1419 0
649 1 3.25231 35.9609 49.631 0
2437 1 4.64428 36.4333 49.8396 0
2458 1 15.9315 36.9836 49.9256 0
4558 1 -2.56296 38.017 48.9671 0
4049 1 -0.225291 37.229 48.7611 0
2341 1 2.49303 38.068 48.7255 0
2338 1 3.73199 38.3753 49.0826 0
2440 1 4.89588 37.8873 49.6386 0
2441 1 6.18039 38.4795 49.9108 0
4557 1 -2.20581 39.3485 48.5858 0
1445 1 6.46477 39.9237 49.6625 0
2319 1 4.19739 27.1264 50.0407 0
4037 1 6.75027 26.7028 50.1239 0
4038 1 8.05251 27.1989 50.196 0
4039 1 9.17981 26.282 50.1789 0
1439 1 10.566 26.6957 50.2498 0
1440 1 11.7064 25.8028 50.0626 0
1428 1 13.0744 26.3181 50.0244 0
1427 1 15.5137 26.0419 50.1009 0
3296 1 -1.96303 28.8996 50.1081 0
3298 1 -3.32212 28.2653 50.1629 0
1364 1 3.09221 28.0659 50.0874 0
3280 1 5.54964 27.5823 50.2303 0
3279 1 5.78518 28.9719 50.4096 0
3277 1 8.28499 28.618 50.3369 0
647 1 10.7719 28.1372 50.3601 0
2424 1 12.1129 28.7076 50.2335 0
2425 1 13.2087 27.7599 50.0549 0
3295 1 -1.82786 30.3289 50.2201 0
2486 1 0.718697 29.9089 50.1945 0
639 1 2.15791 30.3383 50.3861 0
641 1 3.29779 29.4695 50.3164 0
640 1 4.6795 29.9288 50.4298 0
3278 1 7.14424 29.4472 50.4727 0
2428 1 9.93954 30.5258 50.3931 0
648 1 9.64573 29.0907 50.3722 0
2420 1 12.3226 30.1432 50.1705 0
3297 1 -2.9726 31.2883 50.2675 0
2485 1 -0.43867 30.8332 50.2714 0
2323 1 -0.047426 32.2222 50.2398 0
1431 1 2.4298 31.7978 50.4138 0
1432 1 4.97291 31.3248 50.4951 0
642 1 7.4604 30.9089 50.4802 0
1433 1 6.33431 31.8288 50.4962 0
2431 1 8.8275 31.3961 50.4712 0
2429 1 11.2498 31.0808 50.2759 0
2447 1 13.8556 32.1382 50.0372 0
3294 1 -2.60132 32.7264 50.201 0
4486 1 -3.53104 33.8693 50.3423 0
2321 1 1.29864 32.7213 50.2799 0
1437 1 3.84511 32.2661 50.412 0
1436 1 4.12947 33.6513 50.2101 0
1434 1 6.57121 33.2532 50.3765 0
643 1 7.89871 33.7686 50.4376 0
2430 1 8.98572 32.8431 50.3991 0
2427 1 10.3553 33.3798 50.2852 0
2426 1 11.4278 32.4839 50.2343 0
2448 1 12.7784 33.0265 50.1909 0
2322 1 1.58537 34.0958 50.0014 0
1435 1 5.49074 34.1799 50.2895 0
2434 1 8.14524 35.2246 50.3553 0
1416 1 10.5726 34.8245 50.2289 0
1419 1 11.9107 35.345 50.2129 0
2445 1 13.0016 34.4563 50.2041 0
2456 1 14.3548 35.0067 50.0121 0
2436 1 5.72744 35.5965 50.2043 0
2438 1 7.02337 36.1272 50.3423 0
2435 1 9.42674 35.7259 50.2491 0
2433 1 9.70602 37.1331 50.4203 0
1418 1 12.1704 36.7848 50.3975 0
2454 1 14.6112 36.4133 50.0836 0
2439 1 7.28408 37.5551 50.2246 0
2432 1 8.59197 38.0271 50.369 0
1415 1 11.0743 37.6494 50.6017 0
2449 1 13.4816 37.3132 50.287 0
2452 1 13.7618 38.7388 50.3892 0
1444 1 7.77459 40.3167 50.2002 0
1414 1 8.81657 39.4084 50.4746 0
652 1 10.1355 39.8647 50.8214 0
653 1 11.287 39.0308 50.7421 0
1454 1 12.6234 39.6253 50.6409 0
2451 1 15.0898 39.2774 50.3152 0
4051 1 -2.59704 41.7583 48.2769 0
4053 1 -0.389256 40.8188 47.7079 0
4052 1 -1.22927 41.9665 47.93 0
3289 1 0.903709 41.0374 47.3471 0
2340 1 3.28567 40.8916 47.7752 0
2339 1 4.48801 40.6104 48.2753 0
3290 1 -0.570081 43.2702 47.859 0
3292 1 0.805767 43.4266 47.6568 0
3291 1 1.58382 42.3519 47.2891 0
3288 1 2.97042 42.3102 47.6059 0
4047 1 3.70095 43.4474 48.0856 0
3293 1 -2.87186 44.2855 48.3929 0
2527 1 -1.40782 44.3852 48.1648 0
3287 1 1.52833 44.636 48.0654 0
4045 1 2.92685 44.6686 48.1368 0
2526 1 -2.96446 46.6783 48.2569 0
3283 1 -0.789896 45.6727 48.2154 0
3282 1 -1.54355 46.8401 48.1646 0
3285 1 0.649444 45.8151 48.15 0
4044 1 3.51146 45.9726 48.259 0
4042 1 4.95243 46.079 48.3575 0
3281 1 -0.885785 48.1252 47.9268 0
3284 1 0.596957 48.3418 47.9313 0
3286 1 1.27392 47.1167 48.0391 0
2330 1 2.73905 47.1472 48.0698 0
2331 1 3.37539 48.468 48.0064 0
2329 1 5.60757 47.4421 48.3207 0
703 1 -3.13982 49.1668 47.8357 0
237 1 -1.70642 49.3144 47.711 0
2327 1 1.19211 49.605 47.7958 0
2326 1 2.59677 49.6857 47.8388 0
2328 1 4.79926 48.602 48.1231 0
1371 1 5.45182 49.9047 48.0564 0
628 1 6.91026 50.0329 48.0655 0
1369 1 7.70463 48.912 48.3477 0
2522 1 -3.29799 51.6713 47.384 0
626 1 -1.04581 50.6322 47.5079 0
625 1 0.353478 50.7461 47.5992 0
2333 1 3.23815 50.9457 47.6915 0
2334 1 4.65857 51.0606 47.7635 0
627 1 7.55308 51.317 47.9516 0
2509 1 9.00452 51.4129 48.0553 0
3444 1 9.80154 50.2166 48.3656 0
4077 1 11.8251 51.6478 48.3904 0
2520 1 -1.27796 53.1376 47.4244 0
2521 1 -1.87076 51.7915 47.3963 0
624 1 0.951649 52.0277 47.4656 0
1501 1 0.19292 53.2385 47.4356 0
2336 1 2.38681 52.1314 47.5124 0
2335 1 5.26656 52.3542 47.6197 0
1372 1 6.7283 52.4959 47.6784 0
2507 1 9.66327 52.7054 47.928 0
2508 1 11.0764 52.8364 48.1208 0
1386 1 13.8499 53.092 48.4177 0
2523 1 -2.05963 54.3745 47.3967 0
1316 1 -3.48365 54.1542 47.2959 0
1500 1 0.856297 54.4942 47.4246 0
692 1 2.23422 54.5755 47.4514 0
2337 1 3.04472 53.3838 47.4415 0
2332 1 4.4777 53.5088 47.4533 0
1373 1 5.07724 54.7969 47.3822 0
2499 1 7.36654 53.8016 47.5319 0
2500 1 6.50402 54.9389 47.4214 0
2497 1 8.79727 53.8898 47.6955 0
1489 1 11.6614 54.1429 48.1123 0
705 1 13.0698 54.2537 48.2155 0
2366 1 15.9145 54.5035 48.3008 0
4556 1 -3.10594 40.4713 48.5496 0
1443 1 5.62351 40.9383 48.986 0
4465 1 -3.47048 42.9122 48.4549 0
4046 1 5.16547 43.4902 48.4979 0
1442 1 5.95425 42.3293 49.0528 0
1452 1 7.2583 42.6899 49.6021 0
4043 1 5.7977 44.8873 48.5913 0
1446 1 7.19382 45.1472 48.8666 0
1450 1 7.89892 44.0111 49.4346 0
1449 1 9.21967 44.2603 49.83 0
1448 1 7.7994 46.4084 48.7904 0
1370 1 9.23077 46.5584 49.0689 0
651 1 9.96261 45.4347 49.5498 0
1387 1 11.4035 45.5056 49.8229 0
2371 1 12.0185 46.8117 49.7883 0
1447 1 7.05388 47.5895 48.4869 0
3445 1 9.86256 47.8411 48.9598 0
3443 1 11.2684 47.9552 49.2823 0
3325 1 14.178 48.1944 49.8178 0
3327 1 15.6032 48.3944 49.9241 0
3446 1 9.11463 48.9996 48.4836 0
4078 1 11.9525 49.2119 49.0597 0
4075 1 13.3874 49.3503 49.2888 0
4079 1 11.1919 50.3518 48.5827 0
4074 1 14.0789 50.5619 48.9235 0
3315 1 15.5009 50.7316 49.063 0
4076 1 13.264 51.7956 48.5692 0
2365 1 15.3025 53.2063 48.4683 0
1451 1 8.10318 41.6924 50.2446 0
2462 1 10.4249 41.2083 51.0356 0
2461 1 11.7184 41.826 50.9002 0
1453 1 12.904 41.1004 50.7306 0
4094 1 14.1829 41.6735 50.5413 0
4092 1 15.3227 40.7125 50.4979 0
2463 1 9.33354 42.075 50.8061 0
2459 1 9.92288 43.3439 50.5301 0
2460 1 11.3536 43.2274 50.5276 0
4095 1 14.5006 43.1324 50.6356 0
4093 1 15.9404 43.4496 50.7977 0
1388 1 12.1112 44.3128 50.1619 0
4089 1 13.5704 44.3269 50.4171 0
4087 1 14.0306 45.7424 50.6104 0
4088 1 15.2638 45.5992 51.1782 0
3324 1 13.454 46.9672 50.0968 0
3451 1 2.59366 60.8793 46.8515 0
3449 1 4.01826 60.9417 46.7736 0
3458 1 0.458129 62.1047 46.8492 0
701 1 1.81472 62.1201 46.6867 0
693 1 4.68373 62.1712 46.6126 0
700 1 2.51798 63.3523 46.683 0
251 1 3.93467 63.355 46.5167 0
1494 1 4.43402 64.6789 46.8649 0
1502 1 -1.3618 55.6096 47.3499 0
1499 1 0.0405662 55.6853 47.309 0
1498 1 2.83652 55.9336 47.2564 0
1496 1 4.27713 56.0045 47.2907 0
2498 1 7.1468 56.2531 47.5659 0
2503 1 8.57429 56.3618 47.6981 0
2504 1 9.40522 55.1702 47.7901 0
2501 1 10.8305 55.3236 48.0116 0
2505 1 11.4526 56.5631 48.1027 0
725 1 13.7026 55.5623 48.1343 0
1517 1 15.0919 55.6793 48.0532 0
697 1 -1.82703 56.8473 47.4351 0
696 1 -1.70312 58.1738 47.4355 0
694 1 0.599298 57.0103 47.2054 0
1497 1 2.0795 57.0866 47.1732 0
2516 1 4.97157 57.2902 47.2062 0
2517 1 6.40274 57.4237 47.3454 0
2502 1 9.22804 57.6623 47.7426 0
2506 1 10.6693 57.7892 47.9902 0
1519 1 13.5239 58.0219 48.2459 0
1522 1 12.8569 56.7518 48.1812 0
1516 1 15.7192 56.9788 47.922 0
726 1 14.9219 58.1519 48.1291 0
702 1 -2.63853 59.1297 47.5607 0
695 1 -0.168918 58.2973 47.2523 0
252 1 0.4456 59.569 47.0701 0
3452 1 1.96628 59.5974 47.0883 0
3448 1 2.6793 58.3774 47.1218 0
3447 1 4.12099 58.472 47.0661 0
3450 1 4.80267 59.7743 46.9476 0
2518 1 7.00745 58.6888 47.3484 0
1518 1 8.44033 58.8367 47.5675 0
1521 1 11.2704 59.1194 48.0231 0
1520 1 12.6903 59.2475 48.2209 0
1527 1 15.5474 59.4928 48.1694 0
3462 1 -1.46707 61.2645 47.313 0
3461 1 -0.218916 60.7976 47.0092 0
2519 1 6.20334 59.897 47.1498 0
1510 1 6.8712 61.1785 47.1557 0
2542 1 8.28758 61.3334 47.5427 0
2543 1 9.07298 60.144 47.764 0
2541 1 10.4671 60.3085 48 0
728 1 13.335 60.5932 48.3233 0
1526 1 14.7765 60.7415 48.2436 0
3457 1 -2.32847 62.295 47.5235 0
1511 1 6.08786 62.346 46.8994 0
2538 1 8.83683 62.6493 47.7362 0
2539 1 10.2158 62.7577 48.095 0
2540 1 11.0633 61.615 48.1752 0
727 1 12.4846 61.7712 48.4033 0
3459 1 -0.433834 63.123 46.9696 0
3460 1 -1.65327 63.58 47.4289 0
699 1 2.08014 64.67 47.0734 0
1512 1 6.58311 63.6897 47.1569 0
1513 1 7.98157 63.7741 47.6462 0
4184 1 10.7709 64.0898 48.3432 0
2525 1 -2.13024 64.8437 47.8869 0
4179 1 -1.38443 66.0667 48.0364 0
698 1 0.903871 65.2665 47.3412 0
4177 1 0.0986696 66.2536 47.8703 0
1495 1 3.28986 65.5423 47.1961 0
1508 1 5.7602 64.8639 47.0397 0
1509 1 6.22429 66.0743 47.5409 0
1507 1 7.63053 66.2138 47.9851 0
1506 1 8.47947 65.0384 48.0147 0
4185 1 9.85109 65.2399 48.3681 0
4175 1 0.879481 67.4642 48.3939 0
2510 1 2.39645 67.6987 48.3536 0
2511 1 3.13749 66.7706 47.7069 0
2515 1 5.55375 67.1946 47.8664 0
730 1 13.0739 63.098 48.5386 0
2549 1 15.4199 62.0482 48.4929 0
4182 1 12.215 64.2542 48.5851 0
2550 1 14.5282 63.2634 48.5947 0
2551 1 15.0925 64.6332 48.7359 0
4183 1 12.7248 65.6049 48.8861 0
2545 1 14.1568 65.8042 48.9301 0
4180 1 -2.09967 67.1745 48.6109 0
1492 1 8.01485 67.4107 48.7524 0
3470 1 9.39314 67.6155 49.0941 0
4186 1 10.3405 66.5065 48.8881 0
4181 1 11.7597 66.7198 49.0577 0
2546 1 14.6431 67.1721 49.1872 0
3454 1 -2.15129 69.3604 49.5289 0
690 1 -3.54882 69.3912 49.5948 0
4178 1 -1.39985 68.3074 49.093 0
4176 1 0.063737 68.4318 49.1116 0
2512 1 3.05653 68.8499 49.0033 0
2513 1 4.48249 69.1208 49.1163 0
2514 1 5.61161 68.275 48.6949 0
1491 1 7.00055 68.4165 49.0431 0
3471 1 9.8416 68.9485 49.5445 0
3472 1 12.2291 68.075 49.3577 0
3469 1 11.3079 69.1303 49.6361 0
2562 1 13.679 68.3219 49.4819 0
3453 1 0.678662 69.642 49.6401 0
1503 1 2.12249 69.8762 49.5919 0
715 1 4.97592 70.3764 49.6969 0
1490 1 7.44569 69.7038 49.6857 0
716 1 6.39295 70.7245 49.8424 0
1493 1 8.8642 69.9479 49.8074 0
2561 1 11.6806 70.4891 49.9576 0
2559 1 14.069 69.741 49.7817 0
1537 1 15.4243 70.2498 49.8593 0
3456 1 -1.63488 70.5034 50.0796 0
3455 1 -0.228857 70.594 50.2295 0
2531 1 2.64465 71.0589 50.2403 0
2560 1 13.1059 70.8281 50.0294 0
2524 1 -2.76097 71.2606 50.5949 0
2580 1 -2.82962 72.3207 51.2475 0
2582 1 -0.37394 72.7538 51.417 0
1504 1 0.327294 71.7248 50.8694 0
2528 1 1.70745 72.0293 50.7991 0
2530 1 4.04461 71.3456 50.1702 0
2529 1 4.47971 72.6673 50.5034 0
720 1 6.85424 72.0439 50.1655 0
717 1 8.27762 72.3586 50.2763 0
724 1 9.29523 71.3066 50.0693 0
723 1 10.6668 71.6062 50.1764 0
712 1 13.4998 72.2431 50.2799 0
714 1 15.8572 71.6781 50.1179 0
713 1 14.9003 72.7129 50.3676 0
3465 1 2.11771 73.3659 51.1741 0
3464 1 3.52698 73.6864 50.9458 0
719 1 5.86994 73.0385 50.5161 0
721 1 6.31119 74.3885 50.9021 0
718 1 8.70082 73.6884 50.5698 0
707 1 10.1421 73.9828 50.5961 0
254 1 11.1152 72.9621 50.483 0
253 1 12.5411 73.3062 50.4887 0
2780 1 15.3335 74.0503 50.7406 0
3467 1 3.94142 75.0565 51.1919 0
711 1 5.28507 75.4282 51.1326 0
722 1 7.71961 74.7048 50.864 0
708 1 8.12141 76.0701 51.1083 0
3602 1 10.5266 75.3692 50.8586 0
4276 1 11.9287 75.6669 50.9245 0
4275 1 12.9389 74.6705 50.769 0
4274 1 14.3315 75.0054 50.9397 0
710 1 5.70138 76.7431 51.3011 0
706 1 7.12933 77.0737 51.2977 0
3603 1 9.53916 76.3749 51.1723 0
4271 1 12.3245 77.0334 51.2408 0
4273 1 13.7225 77.4263 51.4452 0
4272 1 14.7266 76.4358 51.2611 0
709 1 4.74336 77.7921 51.5063 0
257 1 5.08953 79.1937 51.5571 0
735 1 7.51792 78.5038 51.3911 0
4261 1 8.91154 78.8371 51.4854 0
4263 1 9.89472 77.7775 51.3886 0
4264 1 11.3309 78.0735 51.3703 0
734 1 6.47561 79.5825 51.4737 0
2581 1 -3.49841 73.3746 51.691 0
2583 1 -0.277784 74.0558 51.8017 0
3466 1 1.13329 74.3794 51.6264 0
2577 1 -3.53887 75.6739 52.6589 0
2578 1 -2.76644 74.5816 52.217 0
2579 1 -1.30762 74.9603 52.0951 0
3463 1 1.56364 75.7188 51.7685 0
3468 1 2.93289 76.0376 51.6051 0
3476 1 -3.06035 77.0596 52.7989 0
2537 1 -0.830621 76.4087 52.2376 0
3475 1 -1.74209 77.4287 52.5493 0
2536 1 0.616548 76.7691 52.0391 0
1505 1 3.33703 77.4547 51.6447 0
3473 1 -1.35981 78.8196 52.5825 0
2533 1 0.975596 78.1712 52.0698 0
2532 1 0.0404632 79.1499 52.4207 0
2534 1 2.37586 78.5263 51.8524 0
4266 1 14.0942 78.7862 51.7261 0
4270 1 15.4678 79.1639 51.8014 0
3474 1 -2.23416 79.893 52.7813 0
2535 1 0.526703 80.553 52.6185 0
2576 1 2.77714 79.9296 51.8955 0
2574 1 1.80952 80.9122 52.2614 0
2575 1 4.11356 80.2867 51.6654 0
733 1 6.90792 80.934 51.6203 0
4260 1 9.32746 80.237 51.5841 0
4259 1 10.7408 80.5071 51.7082 0
4262 1 11.7515 79.4472 51.7132 0
4265 1 13.134 79.7526 51.849 0
4269 1 15.8892 80.5398 52.0862 0
2566 1 -0.4244 81.5434 52.9252 0
2565 1 -1.81951 81.2358 53.0193 0
2572 1 2.1746 82.3455 52.3294 0
2573 1 4.52341 81.6517 51.8357 0
256 1 5.94739 81.9803 51.7951 0
732 1 8.31934 81.2399 51.6332 0
3600 1 11.1216 81.8803 51.9612 0
3601 1 12.5112 82.2118 52.1468 0
4268 1 13.5434 81.1641 52.0899 0
4267 1 14.8648 81.565 52.2332 0
1538 1 1.21995 83.3186 52.609 0
2567 1 -0.105202 82.9612 53.0088 0
2594 1 3.97594 84.0519 52.0162 0
2571 1 3.57073 82.6527 52.0089 0
731 1 6.30685 83.3821 51.9215 0
1555 1 7.73459 83.6419 51.9372 0
1554 1 8.73531 82.6102 51.8573 0
2783 1 10.1039 82.9185 52.013 0
2788 1 14.2315 83.9525 52.4891 0
2781 1 12.8502 83.5694 52.2935 0
2790 1 15.2292 82.9152 52.4668 0
2570 1 -2.83159 82.2113 53.2272 0
2569 1 -2.54322 83.564 53.3493 0
2568 1 -1.10073 83.9657 53.1927 0
1551 1 4.46777 89.0085 50.8128 0
1553 1 5.36328 88.1043 51.2277 0
1552 1 6.66858 88.479 51.4474 0
1550 1 3.30106 89.4402 50.9676 0
1541 1 7.03725 89.8881 51.3988 0
1540 1 3.21934 92.2505 51.3012 0
1546 1 5.82244 92.2486 51.3398 0
1547 1 6.15749 90.9078 51.2963 0
1558 1 1.60673 93.8872 51.5353 0
1539 1 4.46161 92.7969 51.2139 0
1544 1 6.88185 93.3037 51.4603 0
259 1 2.75775 94.7755 51.4031 0
260 1 4.18389 94.2722 51.2629 0
763 1 5.29549 95.1717 51.2296 0
764 1 6.65123 94.7399 51.3156 0
3484 1 9.12688 95.1952 51.4372 0
271 1 2.51294 96.1887 51.4677 0
1589 1 3.73115 97.0634 51.4903 0
1590 1 5.0232 96.5686 51.351 0
3485 1 7.77323 95.6848 51.3894 0
3483 1 7.53536 97.0951 51.4191 0
3486 1 10.2556 96.0795 51.4457 0
2614 1 6.13272 97.4826 51.4147 0
3488 1 8.66075 98.0176 51.4012 0
3487 1 9.98495 97.5048 51.403 0
273 1 11.0734 98.4641 51.4739 0
737 1 -0.730836 85.3587 53.1209 0
736 1 0.628667 85.7298 52.824 0
258 1 1.66076 84.7341 52.5045 0
2592 1 2.98313 85.1503 52.1282 0
2595 1 5.34439 84.4249 51.9021 0
2593 1 5.74377 85.7757 51.8316 0
2588 1 8.15547 85.0316 51.9568 0
2589 1 9.58072 85.3555 52.0559 0
2784 1 10.4925 84.2531 52.2118 0
2782 1 11.8833 84.6035 52.3327 0
2787 1 14.6144 85.276 52.8313 0
739 1 0.957697 87.1307 52.6886 0
2590 1 3.32175 86.6142 51.9307 0
2591 1 4.78862 86.8447 51.6828 0
2584 1 7.16325 86.1274 51.8311 0
2587 1 7.61244 87.4674 51.7554 0
2585 1 10.0208 86.7098 52.0261 0
1790 1 11.3428 87.1006 52.4118 0
1792 1 12.2652 86.0258 52.5168 0
1791 1 13.6893 86.3033 52.7573 0
738 1 -0.0295654 88.0059 53.0612 0
1549 1 2.14808 87.5642 52.0601 0
2586 1 9.0348 87.731 51.818 0
1789 1 11.7177 88.4201 52.3661 0
1788 1 13.0789 88.7026 52.7675 0
1787 1 14.0359 87.6729 53.0087 0
746 1 -1.24353 89.902 52.9119 0
743 1 1.13489 89.9919 52.1044 0
742 1 0.0434338 89.3837 52.7906 0
1548 1 2.16889 89.106 51.5954 0
1542 1 8.4556 90.2335 51.657 0
761 1 9.45001 89.1562 51.8185 0
760 1 10.831 89.5359 52.0954 0
2601 1 13.4796 89.9845 53.0592 0
1561 1 -2.87789 91.6996 52.6132 0
1559 1 -0.40446 92.0693 52.1745 0
747 1 -1.50367 91.2586 52.5972 0
1557 1 0.921319 91.4768 51.9571 0
1543 1 8.59088 91.5617 51.7808 0
2607 1 10.7747 91.9581 51.7101 0
2606 1 11.3922 90.8586 52.0852 0
2605 1 12.6931 91.0385 52.5895 0
3482 1 13.488 92.3176 52.6947 0
1568 1 -2.15539 93.9247 52.1046 0
1560 1 -3.25412 93.063 52.3714 0
1566 1 -0.728634 93.4698 51.9544 0
1556 1 1.91754 92.4414 51.6215 0
1545 1 8.25925 92.8619 51.618 0
762 1 9.34296 93.8102 51.5855 0
2603 1 10.6619 93.297 51.6741 0
3481 1 13.1278 93.6804 52.3903 0
1569 1 -2.40617 95.3393 51.9567 0
1565 1 0.318787 94.3609 51.6764 0
2604 1 11.8113 94.1461 51.9077 0
1588 1 11.5729 95.5756 51.7205 0
3478 1 14.1903 94.6367 52.5692 0
1567 1 -1.32465 96.1926 51.7774 0
1564 1 -0.00656883 95.7418 51.6376 0
751 1 1.11257 96.6264 51.6084 0
1587 1 12.6734 96.5235 51.8425 0
2599 1 14.0036 96.0578 52.1753 0
3493 1 14.9747 97.0861 52.3963 0
1562 1 -2.85616 98.0518 52.3289 0
1563 1 -1.48959 97.593 52.0271 0
750 1 -0.351236 98.4683 52.0814 0
752 1 0.98123 98.0257 51.8512 0
2613 1 3.45608 98.435 51.6574 0
267 1 12.4037 97.9565 51.6789 0
3492 1 14.7888 98.4692 52.0619 0
2563 1 -3.4426 84.609 53.4424 0
2789 1 15.9562 85.5878 53.1869 0
2564 1 -3.11693 86.0263 53.4441 0
741 1 -1.76165 86.3715 53.3487 0
744 1 -2.23325 88.9637 53.278 0
740 1 -1.37307 87.6937 53.4057 0
987 1 15.3815 88.0674 53.4659 0
986 1 15.7673 89.3933 53.7741 0
2602 1 14.8061 90.4232 53.438 0
3480 1 14.8322 91.9025 53.2611 0
3479 1 15.8358 92.8692 53.6127 0
3477 1 15.4764 94.2734 53.2606 0
2615 1 5.9255 98.9318 51.5451 0
2616 1 6.99365 99.8668 51.5255 0
768 1 9.44582 100.427 51.4828 0
2617 1 8.37494 99.4391 51.4701 0
272 1 10.8336 99.9175 51.4002 0
269 1 13.229 100.334 51.5481 0
769 1 9.19875 101.843 51.5367 0
270 1 11.9094 100.847 51.5479 0
767 1 10.3203 102.812 51.5221 0
275 1 11.6916 102.316 51.5135 0
274 1 12.794 103.245 51.5202 0
75 1 15.1208 104.951 51.5185 0
240 1 14.7169 107.793 51.2875 0
245 1 14.5946 109.265 51.2502 0
243 1 15.7439 110.09 50.8689 0
247 1 15.6293 111.556 50.9006 0
248 1 14.5284 112.161 51.4959 0
1600 1 -3.00365 99.4179 52.6261 0
1602 1 -1.89496 100.291 52.7897 0
748 1 -0.589858 99.8355 52.4631 0
2611 1 1.84267 100.298 52.1672 0
2612 1 2.1019 98.8907 51.898 0
2608 1 4.52721 99.4014 51.6843 0
268 1 13.4628 98.9092 51.7091 0
3491 1 15.8527 99.4164 52.2026 0
749 1 0.502729 100.742 52.5186 0
1572 1 0.321631 102.058 53.0731 0
2609 1 2.96057 101.203 52.1542 0
2610 1 4.2954 100.779 51.9237 0
754 1 5.40009 101.719 51.902 0
771 1 6.77977 101.279 51.6601 0
278 1 14.3629 101.284 51.6396 0
1595 1 15.6747 100.732 51.8733 0
1570 1 1.41655 102.972 53.0238 0
753 1 2.72122 102.573 52.5754 0
755 1 3.7928 103.552 52.4439 0
756 1 5.09786 103.115 52.091 0
766 1 7.58344 103.69 51.8133 0
770 1 7.86078 102.286 51.696 0
277 1 14.1725 102.673 51.6229 0
276 1 15.304 103.523 51.6542 0
261 1 3.49957 104.906 52.6 0
279 1 6.16824 104.078 51.9957 0
2480 1 8.63367 104.688 51.7525 0
2481 1 10.0175 104.252 51.6846 0
2478 1 11.1596 105.201 51.701 0
1485 1 12.5986 104.7 51.5854 0
1574 1 2.20195 105.359 52.9721 0
1575 1 1.81554 106.742 52.9386 0
1584 1 4.56251 105.866 52.3567 0
1583 1 5.9306 105.481 52.1339 0
1581 1 6.90886 106.492 51.9262 0
2479 1 8.35808 106.115 51.7504 0
2477 1 10.982 106.702 51.7771 0
1486 1 13.7722 105.556 51.5805 0
1476 1 2.83897 107.694 52.6022 0
1585 1 4.17996 107.276 52.3434 0
1586 1 5.16323 108.29 52.0869 0
1582 1 6.52479 107.851 51.9763 0
759 1 9.03432 108.496 52.2244 0
2476 1 9.53399 107.093 51.8332 0
1484 1 12.1743 107.58 51.8291 0
1487 1 13.5356 106.976 51.6022 0
2633 1 -1.75769 110.149 52.9694 0
682 1 1.03173 109.415 52.6143 0
1477 1 2.41868 109.074 52.4347 0
1478 1 3.38953 110.081 52.1082 0
1475 1 4.73444 109.667 52.0154 0
758 1 7.63286 108.854 52.0865 0
686 1 9.83132 109.469 52.8842 0
684 1 12.3206 109.017 52.1986 0
685 1 11.2985 109.698 52.8792 0
244 1 13.462 109.88 51.821 0
3433 1 -3.51157 111.739 52.5629 0
2636 1 -3.13561 110.484 53.0814 0
2632 1 -0.76767 111.1 52.401 0
1480 1 0.629737 110.733 52.3157 0
1479 1 1.56592 111.774 52.0412 0
680 1 2.97746 111.434 51.9904 0
681 1 5.76453 110.631 52.0807 0
266 1 7.13341 110.214 52.3182 0
264 1 7.94892 111.194 52.922 0
242 1 13.5497 111.332 52.0648 0
2634 1 -2.55312 112.752 52.1675 0
2635 1 -1.2084 112.44 52.0421 0
1481 1 1.13782 113.154 51.9871 0
679 1 3.9626 112.457 51.9957 0
678 1 5.37805 112.023 52.0813 0
76 1 6.3207 113.027 52.5099 0
262 1 7.58933 112.568 52.9896 0
70 1 12.5224 111.97 52.8469 0
683 1 12.3125 113.402 52.8004 0
1601 1 -2.03406 101.572 53.3604 0
1599 1 -3.384 102.042 53.7544 0
4292 1 -3.55084 103.367 54.4416 0
1573 1 -0.984824 102.487 53.456 0
757 1 -2.45445 104.245 54.4897 0
1571 1 -1.12675 103.864 53.9123 0
1576 1 1.21914 104.356 53.3216 0
1577 1 -0.0655657 104.803 53.7981 0
1580 1 -0.415668 106.172 53.8663 0
2597 1 -1.73699 106.598 54.2186 0
2598 1 -2.17334 107.962 53.9699 0
1579 1 0.515281 107.151 53.3791 0
1578 1 0.0696738 108.486 53.1281 0
1598 1 -1.31954 108.858 53.2694 0
265 1 9.23347 110.777 53.3494 0
263 1 10.2396 111.763 53.6291 0
241 1 11.5146 111.095 53.3144 0
1482 1 9.93242 113.138 53.5207 0
2596 1 -2.6791 105.654 54.6965 0
2394 1 34.7337 1.27592 48.1655 0
4522 1 34.9137 -0.162762 48.3719 0
3350 1 30.7358 2.89162 48.4292 0
1399 1 33.4089 1.81262 48.3237 0
3351 1 31.9211 3.77476 48.3468 0
1400 1 33.2129 3.21824 48.2436 0
1402 1 34.3878 4.09167 48.1233 0
3349 1 31.7615 5.23729 48.4122 0
2398 1 32.9188 6.11213 48.3371 0
2396 1 34.1927 5.55454 48.2076 0
3382 1 35.4107 6.43968 48.2277 0
3381 1 35.1992 7.90553 48.3898 0
1362 1 18.9576 -2.90059 49.6727 0
1361 1 20.0997 -1.9888 49.3236 0
236 1 21.3578 -2.59726 49.1125 0
1339 1 23.7833 -2.22496 48.9039 0
3219 1 26.2747 -1.88271 48.9077 0
3220 1 26.3723 -3.29962 49.2409 0
3990 1 28.5877 -2.83005 49.4613 0
4527 1 31.6994 -2.78425 49.4657 0
1185 1 33.1293 -3.30091 49.651 0
4524 1 34.116 -2.32544 49.2217 0
1358 1 17.5315 -0.861887 49.9165 0
1360 1 19.8273 -0.594949 49.1379 0
234 1 22.2968 -0.265534 48.7281 0
69 1 22.4783 -1.70201 48.8582 0
1340 1 24.8971 -1.37609 48.7548 0
3989 1 27.4347 -1.05528 48.873 0
3985 1 28.7933 -1.5751 49.0466 0
3984 1 29.9968 -0.832056 48.9129 0
4520 1 31.3246 -1.42131 49.0737 0
4519 1 32.4501 -0.530306 48.7739 0
4523 1 33.7975 -1.04275 48.7742 0
1359 1 18.5648 -0.0439973 49.4309 0
622 1 18.414 1.36492 49.3041 0
623 1 20.9674 0.31536 48.8111 0
233 1 23.4169 0.59196 48.5128 0
235 1 24.7416 0.0528783 48.6324 0
1398 1 25.9241 0.882143 48.59 0
3988 1 27.2233 0.335295 48.6386 0
3987 1 28.4383 1.13848 48.5456 0