ITEM: TIMESTEP
7550000
ITEM: NUMBER OF ATOMS
5183
ITEM: BOX BOUNDS pp pp pp
-3.5542542076441408e+00 1.1355425420764243e+02
-3.4614373467508472e+00 1.1346143734675107e+02
0.0000000000000000e+00 1.0000000000000000e+02
ITEM: ATOMS id type x y z temp energy
1.000000000000000000e+00 1.000000000000000000e+00 1.000330000000000013e+02 6.495409999999999684e+01 5.136520000000000152e+01 3.131480000000000246e+02 1.759423545089324192e-01
2.000000000000000000e+00 1.000000000000000000e+00 1.007950000000000017e+02 6.382399999999999807e+01 5.100399999999999778e+01 3.170269999999999868e+02 1.718064006606218885e-01
3.000000000000000000e+00 1.000000000000000000e+00 9.780750000000000455e+01 7.141230000000000189e+01 5.098559999999999803e+01 3.150590000000000259e+02 1.770718649556687063e-01
4.000000000000000000e+00 1.000000000000000000e+00 9.924530000000000030e+01 7.103619999999999379e+01 5.122549999999999670e+01 3.155919999999999845e+02 1.770156769468320124e-01
5.000000000000000000e+00 1.000000000000000000e+00 1.003850000000000051e+02 7.199219999999999686e+01 5.121039999999999992e+01 3.134479999999999791e+02 1.776997571101328055e-01
6.000000000000000000e+00 1.000000000000000000e+00 1.073250000000000028e+02 6.053040000000000020e+01 4.937360000000000326e+01 3.127719999999999914e+02 1.755081762698709191e-01
7.000000000000000000e+00 1.000000000000000000e+00 1.066449999999999960e+02 6.172409999999999997e+01 4.978920000000000101e+01 3.174809999999999945e+02 1.754325836923525672e-01
8.000000000000000000e+00 1.000000000000000000e+00 1.052199999999999989e+02 6.164170000000000016e+01 5.007580000000000098e+01 3.119809999999999945e+02 1.728053982574416780e-01
9.000000000000000000e+00 1.000000000000000000e+00 1.093529999999999944e+02 5.696159999999999712e+01 4.880340000000000344e+01 3.184970000000000141e+02 1.303100458119853255e-01
1.000000000000000000e+01 1.000000000000000000e+00 1.088349999999999937e+02 5.822599999999999909e+01 4.887930000000000064e+01 3.115260000000000105e+02 1.589678979779054202e-01
1.100000000000000000e+01 1.000000000000000000e+00 1.022819999999999965e+02 6.150319999999999965e+01 5.014459999999999695e+01 3.115520000000000209e+02 1.728574702927098417e-01
1.200000000000000000e+01 1.000000000000000000e+00 1.009360000000000070e+02 5.909210000000000207e+01 4.952049999999999841e+01 3.116259999999999764e+02 1.727956073609636378e-01
1.300000000000000000e+01 1.000000000000000000e+00 1.022720000000000056e+02 6.385779999999999745e+01 5.095660000000000167e+01 3.161589999999999918e+02 1.698953243709882266e-01
1.400000000000000000e+01 1.000000000000000000e+00 1.029959999999999951e+02 6.498409999999999798e+01 5.137630000000000052e+01 3.146960000000000264e+02 1.720606350737488299e-01
1.500000000000000000e+01 1.000000000000000000e+00 1.044579999999999984e+02 6.285360000000000014e+01 5.036299999999999955e+01 3.155140000000000100e+02 1.743253210472853476e-01
1.600000000000000000e+01 1.000000000000000000e+00 1.029609999999999985e+02 6.274130000000000251e+01 5.042210000000000036e+01 3.068349999999999795e+02 1.701445851778513041e-01
1.700000000000000000e+01 1.000000000000000000e+00 1.002920000000000016e+02 5.777219999999999800e+01 4.937660000000000338e+01 3.126970000000000027e+02 1.737153198294828504e-01
1.800000000000000000e+01 1.000000000000000000e+00 1.043970000000000056e+02 6.522560000000000002e+01 5.110869999999999891e+01 3.133450000000000273e+02 1.762432149251744740e-01
1.900000000000000000e+01 1.000000000000000000e+00 1.051089999999999947e+02 6.411409999999999343e+01 5.056589999999999918e+01 3.127130000000000223e+02 1.731565940930090974e-01
2.000000000000000000e+01 1.000000000000000000e+00 3.656210000000000093e+01 5.909440000000000026e+01 4.844689999999999941e+01 3.095779999999999745e+02 1.697931164356632494e-01
2.100000000000000000e+01 1.000000000000000000e+00 3.429910000000000281e+01 6.458540000000000703e+01 5.016790000000000305e+01 3.157730000000000246e+02 1.723907057210984084e-01
2.200000000000000000e+01 1.000000000000000000e+00 3.464920000000000044e+01 6.591169999999999618e+01 5.055340000000000344e+01 3.129159999999999968e+02 1.714193187215692082e-01
2.300000000000000000e+01 1.000000000000000000e+00 3.360719999999999885e+01 6.680780000000000030e+01 5.107390000000000185e+01 3.122230000000000132e+02 1.719189284871305845e-01
2.400000000000000000e+01 1.000000000000000000e+00 6.210699999999999932e+01 6.465890000000000271e+01 4.851919999999999789e+01 3.116539999999999964e+02 1.732675189735773391e-01
2.500000000000000000e+01 1.000000000000000000e+00 1.066710000000000065e+02 7.297050000000000125e+01 5.088689999999999714e+01 3.138419999999999845e+02 1.789470924730877099e-01
2.600000000000000000e+01 1.000000000000000000e+00 1.084609999999999985e+02 7.886650000000000205e+01 5.259120000000000061e+01 3.171929999999999836e+02 1.701247815371604299e-01
2.700000000000000000e+01 1.000000000000000000e+00 1.014360000000000070e+02 8.734050000000000580e+01 5.071589999999999776e+01 3.131970000000000027e+02 1.779956547991544402e-01
2.800000000000000000e+01 1.000000000000000000e+00 9.887090000000000600e+01 7.765659999999999741e+01 5.030910000000000082e+01 3.158050000000000068e+02 1.755668324697570726e-01
2.900000000000000000e+01 1.000000000000000000e+00 9.873650000000000659e+01 6.031179999999999808e+01 4.968889999999999674e+01 3.156039999999999850e+02 1.732139180475652240e-01
3.000000000000000000e+01 1.000000000000000000e+00 1.000789999999999935e+02 6.265760000000000218e+01 5.052890000000000015e+01 3.164209999999999923e+02 1.732071629314288763e-01
3.100000000000000000e+01 1.000000000000000000e+00 1.001689999999999969e+02 6.027660000000000196e+01 4.972359999999999758e+01 3.175609999999999786e+02 1.733028811049488471e-01
3.200000000000000000e+01 1.000000000000000000e+00 1.008409999999999940e+02 6.149699999999999989e+01 5.012019999999999698e+01 3.135129999999999768e+02 1.728534276444623485e-01
3.300000000000000000e+01 1.000000000000000000e+00 9.863760000000000616e+01 6.270230000000000103e+01 5.044919999999999760e+01 3.121480000000000246e+02 1.763913244308695782e-01
3.400000000000000000e+01 1.000000000000000000e+00 9.798269999999999413e+01 6.149309999999999832e+01 4.997910000000000252e+01 3.065860000000000127e+02 1.727213068243010630e-01
3.500000000000000000e+01 1.000000000000000000e+00 9.434720000000000084e+01 5.766550000000000153e+01 4.962080000000000268e+01 3.163419999999999845e+02 1.738848822190852683e-01
3.600000000000000000e+01 1.000000000000000000e+00 9.497870000000000346e+01 7.230140000000000100e+01 5.122310000000000230e+01 3.108269999999999982e+02 1.754379615901874023e-01
3.700000000000000000e+01 1.000000000000000000e+00 9.373770000000000380e+01 7.289329999999999643e+01 5.154879999999999995e+01 3.086890000000000214e+02 1.734195773113248462e-01
3.800000000000000000e+01 1.000000000000000000e+00 9.426739999999999498e+01 6.954630000000000223e+01 5.099080000000000013e+01 3.204429999999999836e+02 1.684643474517546480e-01
3.900000000000000000e+01 1.000000000000000000e+00 9.670010000000000616e+01 7.039069999999999538e+01 5.090939999999999799e+01 3.121499999999999773e+02 1.766251027382441108e-01
4.000000000000000000e+01 1.000000000000000000e+00 9.524349999999999739e+01 7.076090000000000657e+01 5.105340000000000344e+01 3.123450000000000273e+02 1.679882938568827977e-01
4.100000000000000000e+01 1.000000000000000000e+00 1.022459999999999951e+02 6.601999999999999602e+01 5.202309999999999945e+01 3.150980000000000132e+02 1.508767056906264170e-01
4.200000000000000000e+01 1.000000000000000000e+00 1.008080000000000069e+02 6.608859999999999957e+01 5.182900000000000063e+01 3.127610000000000241e+02 1.684818730878360205e-01
4.300000000000000000e+01 1.000000000000000000e+00 9.606059999999999377e+01 7.320199999999999818e+01 5.102669999999999817e+01 3.207679999999999723e+02 1.811785707211326091e-01
4.400000000000000000e+01 1.000000000000000000e+00 9.747039999999999793e+01 7.280790000000000362e+01 5.091819999999999879e+01 3.141549999999999727e+02 1.785445938225712903e-01
4.500000000000000000e+01 1.000000000000000000e+00 9.579500000000000171e+01 7.467069999999999652e+01 5.103589999999999804e+01 3.126750000000000114e+02 1.735669161229031754e-01
4.600000000000000000e+01 1.000000000000000000e+00 9.684600000000000364e+01 7.563230000000000075e+01 5.082309999999999661e+01 3.175760000000000218e+02 1.741555297587837614e-01
4.700000000000000000e+01 1.000000000000000000e+00 8.353730000000000189e+01 5.224909999999999854e+01 4.889489999999999981e+01 3.222570000000000050e+02 1.233314548078638662e-01
4.800000000000000000e+01 1.000000000000000000e+00 8.997860000000000014e+01 6.436599999999999966e+01 4.942510000000000048e+01 3.136039999999999850e+02 1.630175458560294555e-01
4.900000000000000000e+01 1.000000000000000000e+00 9.116060000000000230e+01 6.507559999999999434e+01 4.984770000000000323e+01 3.221250000000000000e+02 1.564569632152079948e-01
5.000000000000000000e+01 1.000000000000000000e+00 9.231119999999999948e+01 6.411530000000000484e+01 4.992289999999999850e+01 3.150980000000000132e+02 1.582838302180180623e-01
5.100000000000000000e+01 1.000000000000000000e+00 1.074440000000000026e+02 5.806900000000000261e+01 4.922409999999999997e+01 3.096279999999999859e+02 1.743828418727273177e-01
5.200000000000000000e+01 1.000000000000000000e+00 1.066620000000000061e+02 5.926659999999999684e+01 4.933590000000000231e+01 3.200570000000000164e+02 1.748987768390329878e-01
5.300000000000000000e+01 1.000000000000000000e+00 1.090660000000000025e+02 5.562550000000000239e+01 4.881889999999999930e+01 3.151290000000000191e+02 1.560132886352535719e-01
5.400000000000000000e+01 1.000000000000000000e+00 1.045250000000000057e+02 6.041210000000000235e+01 4.985690000000000310e+01 3.182379999999999995e+02 1.755961715535547529e-01
5.500000000000000000e+01 1.000000000000000000e+00 1.030400000000000063e+02 6.028880000000000194e+01 4.994299999999999784e+01 3.188580000000000041e+02 1.731659886540387050e-01
5.600000000000000000e+01 1.000000000000000000e+00 1.023700000000000045e+02 5.904469999999999885e+01 4.964050000000000296e+01 3.116320000000000050e+02 1.746345498230962856e-01
5.700000000000000000e+01 1.000000000000000000e+00 1.030909999999999940e+02 5.782300000000000040e+01 4.952680000000000149e+01 3.106410000000000196e+02 1.751366168582905725e-01
5.800000000000000000e+01 1.000000000000000000e+00 1.045649999999999977e+02 5.789909999999999712e+01 4.944830000000000325e+01 3.121109999999999900e+02 1.773838580201440862e-01
5.900000000000000000e+01 1.000000000000000000e+00 1.052259999999999991e+02 5.916969999999999885e+01 4.949269999999999925e+01 3.125980000000000132e+02 1.744506138115747840e-01
6.000000000000000000e+01 1.000000000000000000e+00 1.094869999999999948e+02 5.952530000000000143e+01 4.872399999999999665e+01 3.215980000000000132e+02 1.757910169078110985e-01
6.100000000000000000e+01 1.000000000000000000e+00 1.087129999999999939e+02 6.073190000000000310e+01 4.900469999999999970e+01 3.132479999999999905e+02 1.786641547952698139e-01
6.200000000000000000e+01 1.000000000000000000e+00 9.611109999999999332e+01 5.525589999999999691e+01 4.974419999999999931e+01 3.132400000000000091e+02 1.674202732666273119e-01
6.300000000000000000e+01 1.000000000000000000e+00 9.382330000000000325e+01 5.641720000000000113e+01 4.988709999999999667e+01 3.128809999999999718e+02 1.700940140845775550e-01
6.400000000000000000e+01 1.000000000000000000e+00 9.251550000000000296e+01 5.584349999999999881e+01 4.969230000000000302e+01 3.095509999999999877e+02 1.714291436517883238e-01
6.500000000000000000e+01 1.000000000000000000e+00 9.471829999999999927e+01 5.528580000000000183e+01 5.002629999999999910e+01 3.205289999999999964e+02 1.633553746807707152e-01
6.600000000000000000e+01 1.000000000000000000e+00 8.532120000000000459e+01 5.408259999999999934e+01 4.882840000000000202e+01 3.084289999999999736e+02 1.763907202447253519e-01
6.700000000000000000e+01 1.000000000000000000e+00 8.468340000000000600e+01 5.152879999999999683e+01 4.886010000000000275e+01 3.094340000000000259e+02 1.599299495420057338e-01
6.800000000000000000e+01 1.000000000000000000e+00 8.568980000000000530e+01 5.264119999999999777e+01 4.892830000000000013e+01 3.067379999999999995e+02 1.716375646440178038e-01
6.900000000000000000e+01 1.000000000000000000e+00 2.243430000000000035e+01 -1.680399999999999894e+00 5.035770000000000124e+01 3.150339999999999918e+02 1.724656333881688375e-01
7.000000000000000000e+01 1.000000000000000000e+00 1.209479999999999933e+01 1.119249999999999972e+02 5.383209999999999695e+01 3.123639999999999759e+02 1.672541111169026373e-01
7.100000000000000000e+01 1.000000000000000000e+00 1.018289999999999935e+02 7.171009999999999707e+01 5.136509999999999820e+01 3.146250000000000000e+02 1.788507426521932231e-01
7.200000000000000000e+01 1.000000000000000000e+00 1.044030000000000058e+02 7.123560000000000514e+01 5.162550000000000239e+01 3.140760000000000218e+02 1.154045631782267267e-01
7.300000000000000000e+01 1.000000000000000000e+00 1.051260000000000048e+02 6.659210000000000207e+01 5.130460000000000065e+01 3.128349999999999795e+02 1.772338605551566360e-01
7.400000000000000000e+01 1.000000000000000000e+00 1.064759999999999991e+02 6.675379999999999825e+01 5.082450000000000045e+01 3.127610000000000241e+02 1.781271659204216040e-01
7.500000000000000000e+01 1.000000000000000000e+00 1.496840000000000082e+01 1.050190000000000055e+02 5.270949999999999847e+01 3.207610000000000241e+02 1.776519031471784915e-01
7.600000000000000000e+01 1.000000000000000000e+00 6.019739999999999647e+00 1.130169999999999959e+02 5.305689999999999884e+01 3.151809999999999832e+02 1.685630830857481610e-01
7.700000000000000000e+01 1.000000000000000000e+00 3.414800000000000324e+01 5.959879999999999711e+01 4.882390000000000185e+01 3.041129999999999995e+02 1.723641241839644067e-01
7.800000000000000000e+01 1.000000000000000000e+00 3.551740000000000208e+01 6.003549999999999898e+01 4.875679999999999836e+01 3.128439999999999941e+02 1.719647875741553145e-01
7.900000000000000000e+01 1.000000000000000000e+00 3.384669999999999845e+01 5.823089999999999833e+01 4.857280000000000086e+01 3.152869999999999777e+02 1.755296354038808626e-01
8.000000000000000000e+01 1.000000000000000000e+00 3.245009999999999906e+01 5.783109999999999928e+01 4.852470000000000283e+01 3.122359999999999900e+02 1.752104304323732209e-01
8.100000000000000000e+01 1.000000000000000000e+00 3.732289999999999708e+01 5.668249999999999744e+01 4.798040000000000305e+01 3.146309999999999718e+02 1.782217883814936898e-01
8.200000000000000000e+01 1.000000000000000000e+00 3.624960000000000093e+01 5.763880000000000337e+01 4.832240000000000180e+01 3.112259999999999991e+02 1.773505605678977193e-01
8.300000000000000000e+01 1.000000000000000000e+00 3.487310000000000088e+01 5.727040000000000219e+01 4.833039999999999736e+01 3.140090000000000146e+02 1.757439238088983613e-01
8.400000000000000000e+01 1.000000000000000000e+00 3.445340000000000202e+01 5.590590000000000259e+01 4.811090000000000089e+01 3.145939999999999941e+02 1.746138661140481385e-01
8.500000000000000000e+01 1.000000000000000000e+00 3.793050000000000210e+01 5.951570000000000249e+01 4.831329999999999814e+01 3.128050000000000068e+02 1.758385802073278714e-01
8.600000000000000000e+01 1.000000000000000000e+00 3.393900000000000006e+01 6.813060000000000116e+01 5.150600000000000023e+01 3.100600000000000023e+02 1.721535001128295106e-01
8.700000000000000000e+01 1.000000000000000000e+00 3.873810000000000286e+01 6.729840000000000089e+01 4.999920000000000186e+01 3.164250000000000114e+02 1.742137400227055100e-01
8.800000000000000000e+01 1.000000000000000000e+00 3.601489999999999725e+01 6.637369999999999948e+01 5.045029999999999859e+01 3.124580000000000268e+02 1.712606589602184148e-01
8.900000000000000000e+01 1.000000000000000000e+00 4.647979999999999734e+01 7.488750000000000284e+01 5.161710000000000065e+01 3.090240000000000009e+02 1.536138701839920295e-01
9.000000000000000000e+01 1.000000000000000000e+00 4.724600000000000222e+01 7.272599999999999909e+01 5.016530000000000200e+01 3.177699999999999818e+02 1.672639679645594180e-01
9.100000000000000000e+01 1.000000000000000000e+00 4.771809999999999974e+01 7.501640000000000441e+01 5.100330000000000297e+01 3.119610000000000127e+02 1.767815926919215908e-01
9.200000000000000000e+01 1.000000000000000000e+00 4.819639999999999702e+01 7.380700000000000216e+01 5.039090000000000202e+01 3.135199999999999818e+02 1.740206222362443989e-01
9.300000000000000000e+01 1.000000000000000000e+00 4.787989999999999924e+01 6.532470000000000709e+01 4.678589999999999804e+01 3.176809999999999832e+02 1.680833950958994516e-01
9.400000000000000000e+01 1.000000000000000000e+00 4.924119999999999919e+01 6.558140000000000214e+01 4.725099999999999767e+01 3.177860000000000014e+02 1.584379999052061283e-01
9.500000000000000000e+01 1.000000000000000000e+00 5.186419999999999675e+01 6.554290000000000305e+01 4.825119999999999720e+01 3.130679999999999836e+02 1.551654504902066356e-01
9.600000000000000000e+01 1.000000000000000000e+00 4.768650000000000233e+01 7.153660000000000707e+01 4.947970000000000113e+01 3.138500000000000227e+02 1.752677447716542158e-01
9.700000000000000000e+01 1.000000000000000000e+00 5.324080000000000013e+01 6.571680000000000632e+01 4.830989999999999895e+01 3.145439999999999827e+02 1.430930899930733247e-01
9.800000000000000000e+01 1.000000000000000000e+00 5.578110000000000213e+01 8.426850000000000307e+01 5.050739999999999696e+01 3.106909999999999741e+02 1.692776011795341096e-01
9.900000000000000000e+01 1.000000000000000000e+00 5.713980000000000103e+01 8.417650000000000432e+01 5.029090000000000060e+01 3.161659999999999968e+02 1.670743764306966417e-01
1.000000000000000000e+02 1.000000000000000000e+00 5.384009999999999962e+01 8.544859999999999900e+01 5.083689999999999998e+01 3.186320000000000050e+02 1.182990000602583414e-01
1.010000000000000000e+02 1.000000000000000000e+00 5.517640000000000100e+01 8.549509999999999366e+01 5.089679999999999893e+01 3.144150000000000205e+02 1.468143985696815368e-01
1.020000000000000000e+02 1.000000000000000000e+00 4.254919999999999902e+01 9.932779999999999632e+01 4.952380000000000138e+01 3.206909999999999741e+02 1.726034267956003121e-01
1.030000000000000000e+02 1.000000000000000000e+00 4.358529999999999660e+01 1.002570000000000050e+02 4.970909999999999940e+01 3.084739999999999895e+02 1.752377451938490205e-01
1.040000000000000000e+02 1.000000000000000000e+00 5.494239999999999924e+01 9.853230000000000643e+01 5.043750000000000000e+01 3.127540000000000191e+02 1.743108439039886826e-01
1.050000000000000000e+02 1.000000000000000000e+00 5.434459999999999980e+01 9.724769999999999470e+01 5.038219999999999743e+01 3.097019999999999982e+02 1.750483900735111398e-01
1.060000000000000000e+02 1.000000000000000000e+00 4.373859999999999815e+01 8.480440000000000111e+01 5.087109999999999843e+01 3.138349999999999795e+02 1.780942540636130944e-01
1.070000000000000000e+02 1.000000000000000000e+00 4.231450000000000244e+01 8.274190000000000111e+01 5.168500000000000227e+01 3.112850000000000250e+02 1.780196929101502401e-01
1.080000000000000000e+02 1.000000000000000000e+00 4.242179999999999751e+01 8.417560000000000286e+01 5.130949999999999989e+01 3.165659999999999741e+02 1.825946137525346624e-01
1.090000000000000000e+02 1.000000000000000000e+00 4.584599999999999653e+01 7.578060000000000684e+01 5.239090000000000202e+01 3.139769999999999754e+02 1.189808577000468631e-01
1.100000000000000000e+02 1.000000000000000000e+00 3.552389999999999759e+01 8.956340000000000146e+01 5.155799999999999983e+01 3.097610000000000241e+02 1.781567265212057605e-01
1.110000000000000000e+02 1.000000000000000000e+00 2.089189999999999969e+01 7.554449999999999932e+01 5.110070000000000334e+01 3.201929999999999836e+02 1.757867072040017464e-01
1.120000000000000000e+02 1.000000000000000000e+00 3.138929999999999865e+01 5.880230000000000246e+01 4.865449999999999875e+01 3.168759999999999764e+02 1.747576646059063876e-01
1.130000000000000000e+02 1.000000000000000000e+00 5.800739999999999696e+01 6.725979999999999848e+01 4.930469999999999686e+01 3.148140000000000214e+02 1.651547262842026631e-01
1.140000000000000000e+02 1.000000000000000000e+00 6.284579999999999700e+01 6.594490000000000407e+01 4.833899999999999864e+01 3.122289999999999850e+02 1.780744412136846255e-01
1.150000000000000000e+02 1.000000000000000000e+00 6.067459999999999809e+01 6.473629999999999995e+01 4.860819999999999652e+01 3.117040000000000077e+02 1.750019278311851501e-01
1.160000000000000000e+02 1.000000000000000000e+00 5.858689999999999998e+01 6.599920000000000186e+01 4.893930000000000291e+01 3.142230000000000132e+02 1.735276886040378885e-01
1.170000000000000000e+02 1.000000000000000000e+00 6.000019999999999953e+01 6.595869999999999322e+01 4.877550000000000097e+01 3.129809999999999945e+02 1.755569614005398626e-01
1.180000000000000000e+02 1.000000000000000000e+00 6.903969999999999629e+01 6.941740000000000066e+01 4.613810000000000144e+01 3.120240000000000009e+02 1.710674399833205517e-01
1.190000000000000000e+02 1.000000000000000000e+00 7.087760000000000105e+01 6.678159999999999741e+01 4.645839999999999748e+01 3.140310000000000059e+02 1.755278261814716412e-01
1.200000000000000000e+02 1.000000000000000000e+00 9.074859999999999616e+01 9.645579999999999643e+01 4.993110000000000070e+01 3.166829999999999927e+02 1.739762871304703362e-01
1.210000000000000000e+02 1.000000000000000000e+00 1.076430000000000007e+02 7.403170000000000073e+01 5.113230000000000075e+01 3.162330000000000041e+02 1.777714000379309878e-01
1.220000000000000000e+02 1.000000000000000000e+00 1.090370000000000061e+02 7.369259999999999877e+01 5.131649999999999778e+01 3.119060000000000059e+02 1.785421978829013490e-01
1.230000000000000000e+02 1.000000000000000000e+00 1.071460000000000008e+02 6.806069999999999709e+01 5.080389999999999873e+01 3.197019999999999982e+02 1.690172419046203911e-01
1.240000000000000000e+02 1.000000000000000000e+00 1.064380000000000024e+02 6.922830000000000439e+01 5.090290000000000248e+01 3.051909999999999741e+02 1.180332857702616756e-01
1.250000000000000000e+02 1.000000000000000000e+00 1.064500000000000028e+02 7.047889999999999588e+01 5.094180000000000064e+01 3.205059999999999718e+02 1.203236020820616370e-01
1.260000000000000000e+02 1.000000000000000000e+00 1.072060000000000031e+02 7.160110000000000241e+01 5.086180000000000234e+01 3.137679999999999723e+02 1.693445219182908301e-01
1.270000000000000000e+02 1.000000000000000000e+00 1.096280000000000001e+02 7.234910000000000707e+01 5.099900000000000233e+01 3.120840000000000032e+02 1.785345520559922794e-01
1.280000000000000000e+02 1.000000000000000000e+00 1.086610000000000014e+02 7.120629999999999882e+01 5.077219999999999800e+01 3.153290000000000077e+02 1.655756115572283582e-01
1.290000000000000000e+02 1.000000000000000000e+00 1.074030000000000058e+02 8.302270000000000039e+01 5.258059999999999690e+01 3.146419999999999959e+02 1.723856952529181641e-01
1.300000000000000000e+02 1.000000000000000000e+00 1.081340000000000003e+02 8.027179999999999893e+01 5.274430000000000263e+01 3.170190000000000055e+02 1.726968128758690491e-01
1.310000000000000000e+02 1.000000000000000000e+00 1.053340000000000032e+02 7.717149999999999466e+01 5.118789999999999907e+01 3.123039999999999736e+02 1.730944645548533611e-01
1.320000000000000000e+02 1.000000000000000000e+00 1.062489999999999952e+02 7.818630000000000280e+01 5.165350000000000108e+01 3.162760000000000105e+02 1.716517102767189384e-01
1.330000000000000000e+02 1.000000000000000000e+00 1.075919999999999987e+02 7.782769999999999300e+01 5.201610000000000156e+01 3.106539999999999964e+02 1.727063008372254349e-01
1.340000000000000000e+02 1.000000000000000000e+00 1.058329999999999984e+02 7.579670000000000130e+01 5.100809999999999889e+01 3.140690000000000168e+02 1.730215280728818195e-01
1.350000000000000000e+02 1.000000000000000000e+00 1.072180000000000035e+02 7.542520000000000380e+01 5.128000000000000114e+01 3.118999999999999773e+02 1.753830550605906535e-01
1.360000000000000000e+02 1.000000000000000000e+00 1.080180000000000007e+02 7.645090000000000430e+01 5.188159999999999883e+01 3.171410000000000196e+02 1.711404901934602540e-01
1.370000000000000000e+02 1.000000000000000000e+00 1.041989999999999981e+02 8.648260000000000502e+01 5.100840000000000174e+01 3.138670000000000186e+02 1.704586348785615268e-01
1.380000000000000000e+02 1.000000000000000000e+00 1.011320000000000050e+02 8.353289999999999793e+01 5.064580000000000126e+01 3.127780000000000200e+02 1.729088212600905783e-01
1.390000000000000000e+02 1.000000000000000000e+00 1.007079999999999984e+02 8.492940000000000111e+01 5.064679999999999893e+01 3.121159999999999854e+02 1.731317989714229177e-01
1.400000000000000000e+02 1.000000000000000000e+00 1.017819999999999965e+02 8.594060000000000343e+01 5.080380000000000251e+01 3.143750000000000000e+02 1.761379865534486444e-01
1.410000000000000000e+02 1.000000000000000000e+00 1.031189999999999998e+02 8.551749999999999829e+01 5.101080000000000325e+01 3.142939999999999827e+02 1.719613256905668519e-01
1.420000000000000000e+02 1.000000000000000000e+00 1.001059999999999945e+02 8.251819999999999311e+01 5.040599999999999881e+01 3.168159999999999741e+02 1.719799108394421128e-01
1.430000000000000000e+02 1.000000000000000000e+00 1.000220000000000056e+02 8.774880000000000280e+01 5.067249999999999943e+01 3.113000000000000114e+02 1.801352852638713198e-01
1.440000000000000000e+02 1.000000000000000000e+00 9.875490000000000634e+01 8.284539999999999793e+01 5.013629999999999853e+01 3.101030000000000086e+02 1.732391768477117844e-01
1.450000000000000000e+02 1.000000000000000000e+00 1.070720000000000027e+02 8.437409999999999854e+01 5.230279999999999774e+01 3.146200000000000045e+02 1.716764680225438544e-01
1.460000000000000000e+02 1.000000000000000000e+00 1.058220000000000027e+02 8.477129999999999654e+01 5.172540000000000049e+01 3.105450000000000159e+02 1.694691802548478621e-01
1.470000000000000000e+02 1.000000000000000000e+00 1.054939999999999998e+02 8.613100000000000023e+01 5.143099999999999739e+01 3.140620000000000118e+02 1.705809655052088480e-01
1.480000000000000000e+02 1.000000000000000000e+00 9.082429999999999382e+01 9.793420000000000414e+01 4.992419999999999902e+01 3.148890000000000100e+02 1.741954177607680510e-01
1.490000000000000000e+02 1.000000000000000000e+00 9.119180000000000064e+01 1.008520000000000039e+02 5.007789999999999964e+01 3.066929999999999836e+02 1.798253529855640409e-01
1.500000000000000000e+02 1.000000000000000000e+00 8.839470000000000027e+01 9.812059999999999604e+01 4.956089999999999662e+01 3.131789999999999736e+02 1.751445164469952465e-01
1.510000000000000000e+02 1.000000000000000000e+00 8.967700000000000671e+01 9.879819999999999425e+01 4.981799999999999784e+01 3.137110000000000127e+02 1.748786581216123792e-01
1.520000000000000000e+02 1.000000000000000000e+00 8.988559999999999661e+01 1.002560000000000002e+02 4.984740000000000038e+01 3.143140000000000214e+02 1.800204575543356555e-01
1.530000000000000000e+02 1.000000000000000000e+00 6.460389999999999588e+01 1.129809999999999945e+02 5.209779999999999944e+01 3.105149999999999864e+02 1.753166296212996522e-01
1.540000000000000000e+02 1.000000000000000000e+00 7.468229999999999791e+01 1.002349999999999994e+02 4.891830000000000211e+01 3.130729999999999791e+02 1.737523036224325468e-01
1.550000000000000000e+02 1.000000000000000000e+00 9.655349999999999966e+01 6.152519999999999811e+01 4.980460000000000065e+01 3.082350000000000136e+02 1.755182264357937338e-01
1.560000000000000000e+02 1.000000000000000000e+00 9.578719999999999857e+01 6.022579999999999956e+01 4.960029999999999717e+01 3.084270000000000209e+02 1.772219582185790010e-01
1.570000000000000000e+02 1.000000000000000000e+00 9.349070000000000391e+01 6.460439999999999827e+01 5.022059999999999746e+01 3.149340000000000259e+02 1.301179525297603001e-01
1.580000000000000000e+02 1.000000000000000000e+00 9.451449999999999818e+01 6.238300000000000267e+01 4.994050000000000011e+01 3.091750000000000114e+02 1.269088499512686374e-01
1.590000000000000000e+02 1.000000000000000000e+00 9.578440000000000509e+01 6.278320000000000078e+01 5.010249999999999915e+01 3.136960000000000264e+02 1.632164149774964212e-01
1.600000000000000000e+02 1.000000000000000000e+00 9.272889999999999588e+01 7.205219999999999914e+01 5.158570000000000277e+01 3.068220000000000027e+02 1.086934422129551825e-01
1.610000000000000000e+02 1.000000000000000000e+00 9.000100000000000477e+01 7.364440000000000452e+01 5.244489999999999696e+01 3.111340000000000146e+02 1.242039180187977376e-01
1.620000000000000000e+02 1.000000000000000000e+00 9.118949999999999534e+01 7.399720000000000653e+01 5.260549999999999926e+01 3.059080000000000155e+02 1.228129086153385979e-01
1.630000000000000000e+02 1.000000000000000000e+00 8.927270000000000039e+01 7.092629999999999768e+01 5.195839999999999748e+01 3.070070000000000050e+02 1.198892875720778128e-01
1.640000000000000000e+02 1.000000000000000000e+00 9.149200000000000443e+01 6.628329999999999700e+01 5.024609999999999843e+01 3.214490000000000123e+02 1.272653162864415821e-01
1.650000000000000000e+02 1.000000000000000000e+00 9.240869999999999607e+01 6.726160000000000139e+01 5.055780000000000030e+01 3.132610000000000241e+02 1.662462149023689606e-01
1.660000000000000000e+02 1.000000000000000000e+00 1.030840000000000032e+02 6.700039999999999907e+01 5.234109999999999729e+01 3.063670000000000186e+02 1.222654770776356870e-01
1.670000000000000000e+02 1.000000000000000000e+00 1.042570000000000050e+02 6.759019999999999584e+01 5.194579999999999842e+01 3.147090000000000032e+02 1.487406117150475715e-01
1.680000000000000000e+02 1.000000000000000000e+00 1.043149999999999977e+02 6.889069999999999538e+01 5.195790000000000219e+01 3.100210000000000150e+02 1.209547388524417066e-01
1.690000000000000000e+02 1.000000000000000000e+00 1.038349999999999937e+02 7.008129999999999882e+01 5.188289999999999935e+01 3.104309999999999832e+02 1.402919164914422367e-01