# USER_LATT cell with dimension 1 x 1 x 1 and a = 1
      6459  atoms
         1  atom types

 0.   210.00000000000000  xlo xhi
 0.    70.00000000000000  ylo yhi
 0.   500.00000000000000  zlo zhi

Atoms

1 1    91.42403410000001     8.78629780000000   250.00000000000000
2 1    95.60327150000001     7.20422700000000   250.00000000000000
3 1    96.10438540000001     8.52262590000000   250.00000000000000
4 1    62.58575440000000    55.90525440000000   250.00000000000000
5 1   143.58811950000003     6.06774380000000   250.00000000000000
6 1   155.89323440000004     0.70583890000000   250.00000000000000
7 1    96.52967840000001     6.18120000000000   250.00000000000000
8 1    94.40446470000001     6.98451380000000   250.00000000000000
9 1    92.29060370000002     7.78165200000000   250.00000000000000
10 1    93.51682280000001     7.99002220000000   250.00000000000000
11 1    95.04829410000002    23.53015520000000   250.00000000000000
12 1    93.96165480000001    24.46488760000000   250.00000000000000
13 1    92.90816500000000    20.62422950000000   250.00000000000000
14 1    93.31195070000001    21.91373440000000   250.00000000000000
15 1    94.51541140000002    22.14368250000000   250.00000000000000
16 1    94.00528720000001     9.29356290000000   250.00000000000000
17 1    95.18332670000001     9.50354010000000   250.00000000000000
18 1   104.73446660000002     5.66882760000000   250.00000000000000
19 1   103.62489320000002     5.14660170000000   250.00000000000000
20 1    95.67449190000002    10.85371600000000   250.00000000000000
21 1   168.55378730000004    21.00366400000000   250.00000000000000
22 1   139.33329770000003    18.38778690000000   250.00000000000000
23 1   131.07890320000001    15.01825430000000   250.00000000000000
24 1   129.82859800000003    13.70932200000000   250.00000000000000
25 1   132.49154670000001    17.16403390000000   250.00000000000000
26 1   132.91571040000002    18.81084250000000   250.00000000000000
27 1   133.88908400000003    19.15361980000000   250.00000000000000
28 1   114.97202300000001     6.06015730000000   250.00000000000000
29 1   119.79080970000000     3.16192990000000   250.00000000000000
30 1   120.05733490000001     5.46021700000000   250.00000000000000
31 1   119.27878570000001     4.63821940000000   250.00000000000000
32 1   126.34268190000002    10.68425470000000   250.00000000000000
33 1    63.92445380000001    55.52890020000000   250.00000000000000
34 1   175.73147589999999    52.99041000000000   250.00000000000000
35 1   149.12962340000001    49.01190570000000   250.00000000000000
36 1   148.73684689999999    47.69290159999999   250.00000000000000
37 1   149.93408200000002    51.53802490000000   250.00000000000000
38 1   154.41835019999999    68.97046659999999   250.00000000000000
39 1   139.38334660000004     0.60964920000000   250.00000000000000
40 1   138.72952269999999     2.62865520000000   250.00000000000000
41 1   138.60137940000001     1.38107300000000   250.00000000000000
42 1   136.83261110000001    14.38230520000000   250.00000000000000
43 1   141.51194770000004    16.88158040000000   250.00000000000000
44 1   141.35424810000001    10.20926670000000   250.00000000000000
45 1   156.06187440000002     1.88819300000000   250.00000000000000
46 1   156.96443180000003     9.83946040000000   250.00000000000000
47 1   143.45101930000004     4.76739120000000   250.00000000000000
48 1   154.59719850000002     0.16104830000000   250.00000000000000
49 1   153.54530340000002     1.06510150000000   250.00000000000000
50 1   152.28890989999999     0.53343330000000   250.00000000000000
51 1   147.51191710000003     0.15204430000000   250.00000000000000
52 1   147.74375920000000     1.47651900000000   250.00000000000000
53 1    68.31975559999999     4.40625140000000   250.00000000000000
54 1    67.41889950000001     3.93023420000000   250.00000000000000
55 1    97.78414160000001     6.47889660000000   250.00000000000000
56 1   110.29233549999999     4.05918170000000   250.00000000000000
57 1   110.05876160000001     2.66126560000000   250.00000000000000
58 1    69.58232880000000     3.58607340000000   250.00000000000000
59 1   129.02697749999999    27.05681230000000   250.00000000000000
60 1   131.08782959999999    25.55360220000000   250.00000000000000
61 1   130.85108959999999    26.95442400000000   250.00000000000000
62 1   132.08300779999999    25.03339000000000   250.00000000000000
63 1    90.75057220000001    30.75158120000000   250.00000000000000
64 1    92.32065580000001    29.74160580000000   250.00000000000000
65 1    93.33599850000000    30.53975300000000   250.00000000000000
66 1   124.37570950000001    33.22771840000000   250.00000000000000
67 1   131.50688170000004    32.15489200000000   250.00000000000000
68 1   146.48579409999999    51.86054620000000   250.00000000000000
69 1   148.27600100000004    49.92321400000000   250.00000000000000
70 1   148.66201780000000    51.25506210000000   250.00000000000000
71 1   147.77775579999999    52.16103750000000   250.00000000000000
72 1   145.60026550000001    52.76823430000000   250.00000000000000
73 1   141.56221010000002    55.18212890000000   250.00000000000000
74 1   144.31996160000000    52.45914079999999   250.00000000000000
75 1   143.42121890000004    53.37067800000000   250.00000000000000
76 1   133.18112180000003    62.76487349999999   250.00000000000000
77 1   134.15690609999999    61.96750640000000   250.00000000000000
78 1   135.44001770000000    69.87589260000000   250.00000000000000
79 1   133.32614140000001    64.07447050000000   250.00000000000000
80 1   134.57028199999999    64.60375980000001   250.00000000000000
81 1    79.08177190000001    68.48977660000000   250.00000000000000
82 1    93.46162420000002    18.48087690000000   250.00000000000000
83 1    93.80233000000001    19.63568500000000   250.00000000000000
84 1    95.79737090000000    23.70560080000000   250.00000000000000
85 1    97.05357360000002    22.60961730000000   250.00000000000000
86 1    98.24819180000001    23.27757650000000   250.00000000000000
87 1    96.44716650000001    24.96527300000000   250.00000000000000
88 1    97.87059020000001    24.96911060000000   250.00000000000000
89 1    94.87998960000002    15.22099970000000   250.00000000000000
90 1    96.19184110000000    15.53820420000000   250.00000000000000
91 1    96.57625580000000    16.69088180000000   250.00000000000000
92 1    95.61410520000001    17.74296570000000   250.00000000000000
93 1    93.97021480000001    16.27727700000000   250.00000000000000
94 1    94.36879730000000    17.45792580000000   250.00000000000000
95 1    91.91266640000002    10.06854440000000   250.00000000000000
96 1    93.10697940000000    10.28577230000000   250.00000000000000
97 1   102.48176580000002     5.99957900000000   250.00000000000000
98 1   100.27403260000000     7.28143740000000   250.00000000000000
99 1   105.89264680000001     4.82548810000000   250.00000000000000
100 1   103.43331910000002     3.92592760000000   250.00000000000000
101 1   169.69062810000003    32.65231710000000   250.00000000000000
102 1   127.38299560000000     2.26967570000000   250.00000000000000
103 1   133.25688170000001     2.78068190000000   250.00000000000000
104 1   134.49247740000004     4.76585250000000   250.00000000000000
105 1   133.35014340000001     4.18806840000000   250.00000000000000
106 1   124.26590730000001     7.80129440000000   250.00000000000000
107 1   123.90246580000000    10.45212560000000   250.00000000000000
108 1   125.35248570000002     8.67743300000000   250.00000000000000
109 1   125.23786930000000     9.79973600000000   250.00000000000000
110 1   128.26817320000004    18.13725090000000   250.00000000000000
111 1   128.71768190000000    11.84398380000000   250.00000000000000
112 1   129.97232059999999    12.88293740000000   250.00000000000000
113 1   131.93103040000000    23.45861820000000   250.00000000000000
114 1   135.17388919999999    21.15979770000000   250.00000000000000
115 1   134.08766170000001    20.69675070000000   250.00000000000000
116 1   132.96521000000001    21.41310310000000   250.00000000000000
117 1   133.07920840000000    22.75778010000000   250.00000000000000
118 1   138.36099240000001    19.00862500000000   250.00000000000000
119 1   136.18905640000000    20.51252750000000   250.00000000000000
120 1   131.76937870000003    17.00159450000000   250.00000000000000
121 1   130.93661499999999    15.51050090000000   250.00000000000000
122 1   130.48655700000000    18.05807690000000   250.00000000000000
123 1   129.37644960000000    17.45765310000000   250.00000000000000
124 1   129.34913639999999    16.22409440000000   250.00000000000000
125 1   134.86703500000002    18.51283270000000   250.00000000000000
126 1   136.13911440000001    19.06136700000000   250.00000000000000
127 1   137.09477229999999    18.43679050000000   250.00000000000000
128 1   137.06147770000001    17.02079770000000   250.00000000000000
129 1   135.74266050000000    15.05920890000000   250.00000000000000
130 1   135.76902770000004    16.42158890000000   250.00000000000000
131 1   134.82695010000000    17.05877880000000   250.00000000000000
132 1   133.45547490000004    16.47773360000000   250.00000000000000
133 1   134.52793890000004    13.05810170000000   250.00000000000000
134 1   132.21321110000000    14.42229850000000   250.00000000000000
135 1   133.44093330000001    15.08934400000000   250.00000000000000
136 1   134.53840640000004    14.42292120000000   250.00000000000000
137 1   131.16716000000000    10.90390680000000   250.00000000000000
138 1   131.08699039999999    12.26543330000000   250.00000000000000
139 1   132.31385800000004    12.97507200000000   250.00000000000000
140 1   133.35919190000001    12.41346070000000   250.00000000000000
141 1   164.36239630000003    25.34530639999999   250.00000000000000
142 1   164.61968999999999    27.96637160000000   250.00000000000000
143 1   168.45542910000003    19.66737750000000   250.00000000000000
144 1   141.57060240000004    18.31423760000000   250.00000000000000
145 1   140.57292180000002    18.95502660000000   250.00000000000000
146 1   117.39966580000001     5.92999940000000   250.00000000000000
147 1   118.22444920000000     4.73850870000000   250.00000000000000
148 1   115.86999520000001     5.35365870000000   250.00000000000000
149 1   127.45535280000001    12.57709310000000   250.00000000000000
150 1   126.27573400000001    11.68860630000000   250.00000000000000
151 1   113.99218000000000     8.17826650000000   250.00000000000000
152 1   115.13198090000000     7.33030420000000   250.00000000000000
153 1   117.60208129999999     6.72967870000000   250.00000000000000
154 1   116.27638250000001     7.87040900000000   250.00000000000000
155 1   116.52370460000000     9.01504800000000   250.00000000000000
156 1   121.18850710000001     2.96741660000000   250.00000000000000
157 1   126.67471320000001     0.11324690000000   250.00000000000000
158 1   128.75802610000002     0.51681100000000   250.00000000000000
159 1   127.61447149999999     0.89724600000000   250.00000000000000
160 1    70.59210970000001    57.06027980000000   250.00000000000000
161 1    68.64196020000000    55.23006060000000   250.00000000000000
162 1    79.00224300000002    65.83187870000000   250.00000000000000
163 1    79.00064089999999    64.54663850000000   250.00000000000000
164 1   118.33882140000001    35.59792710000000   250.00000000000000
165 1    78.02143100000002    63.82790379999999   250.00000000000000
166 1    74.91445920000001    60.05108640000000   250.00000000000000
167 1    76.19231420000000    59.36710740000000   250.00000000000000
168 1    76.29850010000001    58.27014160000000   250.00000000000000
169 1   177.36557010000004    47.01651380000000   250.00000000000000
170 1   180.03677370000003    42.15194700000000   250.00000000000000
171 1   186.33815000000004    43.15586090000000   250.00000000000000
172 1   185.30258180000004    43.96520240000000   250.00000000000000
173 1   169.96928420000000    58.78073120000000   250.00000000000000
174 1   169.97665420000001    57.50740050000000   250.00000000000000
175 1   175.79856880000003    51.56446080000000   250.00000000000000
176 1   181.02636720000004    60.44301230000000   250.00000000000000
177 1   177.68508910000003    68.52449040000000   250.00000000000000
178 1   177.68823240000000    67.38130950000000   250.00000000000000
179 1   171.19604490000000    56.82759100000000   250.00000000000000
180 1   175.88960280000001    55.62562950000000   250.00000000000000
181 1   176.40010070000002    69.25021360000000   250.00000000000000
182 1   182.83039860000000    55.02539440000000   250.00000000000000
183 1   160.50079350000001    69.86261000000000   250.00000000000000
184 1   157.07264710000004    64.00070950000000   250.00000000000000
185 1   150.83244329999999    50.61911779999999   250.00000000000000
186 1   151.30909730000002    48.36014180000000   250.00000000000000
187 1   150.43627930000000    49.28550340000000   250.00000000000000
188 1   148.13905339999999    53.47812660000000   250.00000000000000
189 1   149.75793460000000    55.11222080000000   250.00000000000000
190 1   150.32788090000000    52.88968280000000   250.00000000000000
191 1   149.41177370000003    53.80067060000000   250.00000000000000
192 1   150.40098570000004    57.69531250000000   250.00000000000000
193 1   159.54576109999999    59.16923140000000   250.00000000000000
194 1   171.06048580000004    59.48178870000000   250.00000000000000
195 1   155.43540960000004    68.11515810000000   250.00000000000000
196 1   155.26882940000002    66.85150920000000   250.00000000000000
197 1   156.18431090000004    66.09722140000000   250.00000000000000
198 1   154.88322460000001    64.22871400000000   250.00000000000000
199 1   156.03529360000002    64.71105200000000   250.00000000000000
200 1   137.69235230000001     3.36441280000000   250.00000000000000
201 1   135.32482909999999     4.37451940000000   250.00000000000000
202 1   135.63377380000000    11.03882310000000   250.00000000000000
203 1   135.64503479999999    12.40511900000000   250.00000000000000
204 1   136.80119329999999    13.03305530000000   250.00000000000000
205 1   136.59901430000002     6.41042570000000   250.00000000000000
206 1   137.63462830000000     4.45553590000000   250.00000000000000
207 1   136.65560920000001     5.07063340000000   250.00000000000000
208 1   137.83186340000003     7.07983880000000   250.00000000000000
209 1   138.90808120000000     5.19139820000000   250.00000000000000
210 1   138.92927560000004     6.37828160000000   250.00000000000000
211 1   140.11358640000000     7.04035000000000   250.00000000000000
212 1   141.27458189999999     8.90065580000000   250.00000000000000
213 1   140.17327879999999     8.28444010000000   250.00000000000000
214 1   142.50926210000003     8.14268690000000   250.00000000000000
215 1   142.39892580000000     6.85606160000000   250.00000000000000
216 1   141.28405760000001     6.27140900000000   250.00000000000000
217 1   151.36996460000000    11.94945240000000   250.00000000000000
218 1   148.09327700000000     8.30570510000000   250.00000000000000
219 1   141.38119510000001    14.24158860000000   250.00000000000000
220 1   141.31353759999999    12.85388760000000   250.00000000000000
221 1   139.29626470000002    16.96265980000000   250.00000000000000
222 1   140.32344060000003    16.31447600000000   250.00000000000000
223 1   138.05780030000003    16.37196540000000   250.00000000000000
224 1   138.02143860000001    14.99951940000000   250.00000000000000
225 1   139.11605839999999    14.32324890000000   250.00000000000000
226 1   140.27201840000001    14.91461660000000   250.00000000000000
227 1   142.40361020000000    10.78645040000000   250.00000000000000
228 1   143.53793339999999    12.71464060000000   250.00000000000000
229 1   142.48896790000001    12.16207700000000   250.00000000000000
230 1   158.67549140000003     4.18889330000000   250.00000000000000
231 1   157.31777960000002     2.42515900000000   250.00000000000000
232 1   157.49246220000003     3.68436220000000   250.00000000000000
233 1   158.83088690000000     5.58095270000000   250.00000000000000
234 1   159.02713010000002     8.21138380000000   250.00000000000000
235 1   155.02357480000003     2.75345730000000   250.00000000000000
236 1   153.72792060000003     2.20662280000000   250.00000000000000
237 1   152.68229680000002     3.13444730000000   250.00000000000000
238 1   134.39179990000002     0.65995990000000   250.00000000000000
239 1   136.93676760000002     0.89668600000000   250.00000000000000
240 1   136.70263670000003     0.32210190000000   250.00000000000000
241 1   134.52194220000001     2.04582790000000   250.00000000000000
242 1   135.63438420000000     2.65037850000000   250.00000000000000
243 1   136.24464420000004     2.43849260000000   250.00000000000000
244 1   141.72077940000000     0.32424710000000   250.00000000000000
245 1   140.80650330000000     1.11306380000000   250.00000000000000
246 1   158.21450809999999     0.36960450000000   250.00000000000000
247 1   158.41546629999999     1.54581880000000   250.00000000000000
248 1   150.00517270000003     1.03638340000000   250.00000000000000
249 1   151.15840150000000     1.52304370000000   250.00000000000000
250 1   151.39500430000001     2.58689910000000   250.00000000000000
251 1   148.85270700000001     1.92723280000000   250.00000000000000
252 1   150.23139950000001     3.72633250000000   250.00000000000000
253 1   149.11555480000004     3.25934050000000   250.00000000000000
254 1   198.65640260000001    38.18552400000000   250.00000000000000
255 1   192.46267700000004    46.99942020000000   250.00000000000000
256 1   193.66723640000004    46.12392429999999   250.00000000000000
257 1   188.23228460000004    38.88754659999999   250.00000000000000
258 1   192.53301999999999    36.72762680000000   250.00000000000000
259 1   193.08215330000002    40.84310160000000   250.00000000000000
260 1   194.13629150000003    40.03343960000000   250.00000000000000
261 1   193.98320020000003    38.69811250000000   250.00000000000000
262 1   192.69023130000002    38.19402310000000   250.00000000000000
263 1   185.84907540000003    39.26816560000000   250.00000000000000
264 1   186.16406250000000    41.91039660000000   250.00000000000000
265 1   187.27815250000003    41.01875310000000   250.00000000000000
266 1   187.08627320000002    39.82472990000000   250.00000000000000
267 1   178.28895570000003    48.37905500000000   250.00000000000000
268 1   181.69865420000002    54.45059590000000   250.00000000000000
269 1   180.50682069999999    55.35535429999999   250.00000000000000
270 1   206.45210270000004    42.44480140000000   250.00000000000000
271 1   163.10615540000001     3.70011090000000   250.00000000000000
272 1   162.89808660000003     1.04434200000000   250.00000000000000
273 1    59.93643200000001    56.23913580000000   250.00000000000000
274 1    92.25106810000001    28.85996260000000   250.00000000000000
275 1    91.09815980000002    28.04737660000000   250.00000000000000
276 1    91.08280180000001    27.12565420000000   250.00000000000000
277 1    92.13775640000001    26.24810220000000   250.00000000000000
278 1   119.02622220000002     2.27576230000000   250.00000000000000
279 1    90.19171910000001     8.58686450000000   250.00000000000000
280 1    89.33754730000001     9.59668920000000   250.00000000000000
281 1    89.70039370000002     7.33043810000000   250.00000000000000
282 1    68.51255800000000     5.75310190000000   250.00000000000000
283 1   112.90054320000000     7.71359830000000   250.00000000000000
284 1   113.75176999999999     5.56724790000000   250.00000000000000
285 1   111.35276030000001     4.50085790000000   250.00000000000000
286 1   112.68521880000000     6.35201600000000   250.00000000000000
287 1   111.57479860000001     5.90338960000000   250.00000000000000
288 1   110.84226240000001     0.43721730000000   250.00000000000000
289 1   113.01699069999999     0.12229070000000   250.00000000000000
290 1   111.06674190000000     1.89035960000000   250.00000000000000
291 1   109.72826390000002     0.02213740000000   250.00000000000000
292 1    69.36491400000000     2.16836620000000   250.00000000000000
293 1    70.35371400000001     1.40270380000000   250.00000000000000
294 1    93.92773440000002     5.71110300000000   250.00000000000000
295 1     0.56784950000000    14.17996600000000   250.00000000000000
296 1     0.16517890000000    12.91169260000000   250.00000000000000
297 1   119.31333160000000    46.68805319999999   250.00000000000000
298 1   209.19093320000002    58.68552400000000   250.00000000000000
299 1   209.51228340000003    59.90937040000000   250.00000000000000
300 1   208.42497259999999    60.91674040000000   250.00000000000000
301 1   207.18797300000003    60.47758489999999   250.00000000000000
302 1   130.18807980000000    46.50162890000000   250.00000000000000
303 1   132.38070680000001    50.80369950000000   250.00000000000000
304 1   130.68818669999999    46.94665160000000   250.00000000000000
305 1   142.22354129999999    37.16301730000000   250.00000000000000
306 1   140.82060240000001    36.83369830000000   250.00000000000000
307 1    97.12181850000002    14.45993140000000   250.00000000000000
308 1    96.73519140000002    13.29565430000000   250.00000000000000
309 1    99.40746310000002    18.57383919999999   250.00000000000000
310 1    98.19155880000001    18.22255900000000   250.00000000000000
311 1    97.81039430000000    17.02078440000000   250.00000000000000
312 1   122.35670469999999    34.48202900000000   250.00000000000000
313 1   123.74544530000001    34.61005400000000   250.00000000000000
314 1   124.27123260000002    35.46814730000000   250.00000000000000
315 1   124.17124180000003    37.71060560000000   250.00000000000000
316 1   123.64018249999999    36.65565110000000   250.00000000000000
317 1   146.94659419999999    49.64824300000000   250.00000000000000
318 1   146.11718750000000    50.55051419999999   250.00000000000000
319 1   145.19268800000000    48.07814410000000   250.00000000000000
320 1   147.39169310000000    47.42910770000000   250.00000000000000
321 1   146.56573490000000    48.35267640000000   250.00000000000000
322 1   142.75360110000000    55.59207920000000   250.00000000000000
323 1   143.76297000000000    54.63073730000000   250.00000000000000
324 1   141.25193790000000    53.97228240000000   250.00000000000000
325 1   142.18351750000002    53.05694200000000   250.00000000000000
326 1   146.33384710000004    69.68081669999999   250.00000000000000
327 1   136.09632870000002    57.88819120000000   250.00000000000000
328 1   136.37405400000000    60.49378969999999   250.00000000000000
329 1   140.50796510000004    56.14638900000000   250.00000000000000
330 1   140.67863470000000    57.19499970000000   250.00000000000000
331 1   139.19100950000004    55.54397200000000   250.00000000000000
332 1   138.19868470000003    56.35332870000000   250.00000000000000
333 1   132.81716920000000    60.15256500000000   250.00000000000000
334 1   134.03050230000002    60.74937439999999   250.00000000000000
335 1   135.00300600000000    58.65043259999999   250.00000000000000
336 1   135.13754270000001    59.92239379999999   250.00000000000000
337 1   141.08581540000000    59.80181120000000   250.00000000000000
338 1   141.28117370000004    60.84973140000000   250.00000000000000
339 1   145.78765870000004    58.80360800000000   250.00000000000000
340 1   143.85366819999999    68.77078250000000   250.00000000000000
341 1   142.54504400000002    68.24580380000000   250.00000000000000
342 1   141.70214849999999    63.46691130000000   250.00000000000000
343 1   144.28511050000003    64.08692170000000   250.00000000000000
344 1   136.52616880000002    61.66516499999999   250.00000000000000
345 1   135.63897710000001    63.74485779999999   250.00000000000000
346 1   135.47917179999999    62.53412630000000   250.00000000000000
347 1   135.19189449999999    68.46894080000000   250.00000000000000
348 1   134.74742130000004    65.85482039999999   250.00000000000000
349 1   135.99536140000004    66.38452150000001   250.00000000000000
350 1   136.20523070000002    67.59848020000000   250.00000000000000
351 1   133.82966619999999    68.00398250000001   250.00000000000000
352 1   133.65759280000003    66.72379309999999   250.00000000000000
353 1    77.82226560000001    66.56639860000000   250.00000000000000
354 1    78.02608490000000    68.04030610000000   250.00000000000000
355 1    95.45103460000001    21.13929560000000   250.00000000000000
356 1    95.14614870000000    19.99299440000000   250.00000000000000
357 1    97.74772650000001    20.67429350000000   250.00000000000000
358 1    96.87220760000001    21.58226020000000   250.00000000000000
359 1    97.19033810000002    19.24025730000000   250.00000000000000
360 1    96.05908970000000    19.01419450000000   250.00000000000000
361 1   108.98871620000000    26.42244530000000   250.00000000000000
362 1   109.79969790000001    23.82241250000000   250.00000000000000
363 1    95.72953040000002    26.13286780000000   250.00000000000000
364 1    94.46848300000002    26.00810240000000   250.00000000000000
365 1    93.60769660000001    26.88202480000000   250.00000000000000
366 1    93.69989020000001    27.82652670000000   250.00000000000000
367 1    91.46854400000001    12.33070760000000   250.00000000000000
368 1    89.83332060000001    10.86218080000000   250.00000000000000
369 1    91.00129699999999    11.08813380000000   250.00000000000000
370 1    94.83229070000000    11.79596240000000   250.00000000000000
371 1    93.58096320000001    11.57859420000000   250.00000000000000
372 1    94.48857880000001    14.05723000000000   250.00000000000000
373 1    95.27547460000001    13.08501630000000   250.00000000000000
374 1    93.13609310000001    13.79559610000000   250.00000000000000
375 1    92.70520780000000    12.57593350000000   250.00000000000000
376 1   100.06571200000002     5.86612220000000   250.00000000000000
377 1    99.14546970000002     3.28096370000000   250.00000000000000
378 1   101.01846310000002     5.06383750000000   250.00000000000000
379 1    98.72883610000001     5.49209360000000   250.00000000000000
380 1    98.37141420000000     4.22750860000000   250.00000000000000
381 1   101.64434820000001     7.72330860000000   250.00000000000000
382 1   102.48567200000001     7.09512000000000   250.00000000000000
383 1   109.14920810000001     4.87035860000000   250.00000000000000
384 1   108.09809880000002     4.44341570000000   250.00000000000000
385 1   106.94978340000002     5.26997040000000   250.00000000000000
386 1   107.84326940000000     3.05567840000000   250.00000000000000
387 1   108.92343140000000     2.24605490000000   250.00000000000000
388 1   107.53595740000002     0.42718480000000   250.00000000000000
389 1   108.66345980000000     0.82674750000000   250.00000000000000
390 1   102.46584319999999     3.46564410000000   250.00000000000000
391 1    99.94053660000000     3.26582310000000   250.00000000000000
392 1   101.05182650000002     4.47357560000000   250.00000000000000
393 1   156.22328189999999    34.36257550000000   250.00000000000000
394 1   166.46447760000001    35.96704859999999   250.00000000000000
395 1   172.66119390000003    38.65642550000000   250.00000000000000
396 1   173.87449659999999    39.29946899999999   250.00000000000000
397 1   172.82411200000004    41.34471890000000   250.00000000000000
398 1   173.93959060000000    40.62980270000000   250.00000000000000
399 1   162.92677320000004    22.14084440000000   250.00000000000000
400 1   163.05560299999999    23.47503090000000   250.00000000000000
401 1   164.23394780000004    24.01633070000000   250.00000000000000
402 1   165.55270390000004    25.88475420000000   250.00000000000000
403 1   166.86953740000001    27.74525450000000   250.00000000000000
404 1   165.68434150000002    27.21172520000000   250.00000000000000
405 1   169.74655150000004    21.56995010000000   250.00000000000000
406 1   171.83428960000003    31.22092440000000   250.00000000000000
407 1   179.87117000000003    40.94173820000000   250.00000000000000
408 1   178.66023260000000    40.36400610000000   250.00000000000000
409 1   181.01817320000004    40.05383300000000   250.00000000000000
410 1   176.15481570000000    36.53778460000000   250.00000000000000
411 1   176.22949220000004    39.21365740000000   250.00000000000000
412 1   174.97001660000004    37.28255459999999   250.00000000000000
413 1   175.02310180000001    38.55487440000000   250.00000000000000
414 1   172.62615969999999    37.38314439999999   250.00000000000000
415 1   173.80963140000000    36.63013460000000   250.00000000000000
416 1   171.38388060000000    36.66956329999999   250.00000000000000
417 1   129.80091859999999     1.22058130000000   250.00000000000000
418 1   132.23219300000000     2.23388270000000   250.00000000000000
419 1   133.13548280000003     0.13250110000000   250.00000000000000
420 1   131.03057860000001     0.43811660000000   250.00000000000000
421 1   132.07666019999999     0.88643400000000   250.00000000000000
422 1   128.92681880000001     6.84848120000000   250.00000000000000
423 1   126.62269590000001     8.06950760000000   250.00000000000000
424 1   128.49061589999999     3.13080620000000   250.00000000000000
425 1   128.48066710000001     4.18325280000000   250.00000000000000
426 1   129.82859800000003     2.28840850000000   250.00000000000000
427 1   130.95774840000001     3.03388170000000   250.00000000000000
428 1   131.15617370000001     8.26276210000000   250.00000000000000
429 1   130.01638790000001     6.23739960000000   250.00000000000000
430 1   131.16894530000002     6.85502920000000   250.00000000000000
431 1   132.24987790000000     6.24554110000000   250.00000000000000
432 1   132.24060059999999     4.85757600000000   250.00000000000000
433 1   130.98284920000000     4.19539690000000   250.00000000000000