ITEM: TIMESTEP
6500000
ITEM: NUMBER OF ATOMS
6459
ITEM: BOX BOUNDS pp pp pp
-7.7345425670859935e+00 2.1773454256708615e+02
-2.3739093354904872e+00 7.2373909335491717e+01
0.0000000000000000e+00 5.0000000000000000e+02
ITEM: ATOMS id type x y z temp longph_energy
1.000000000000000000e+00 1.000000000000000000e+00 9.504269999999999641e+01 9.706020000000000536e+00 2.500589999999999975e+02 3.004449999999999932e+02 1.759421410657753260e-01
2.000000000000000000e+00 1.000000000000000000e+00 9.941150000000000375e+01 7.694440000000000168e+00 2.488230000000000075e+02 3.074499999999999886e+02 1.766323850079841717e-01
3.000000000000000000e+00 1.000000000000000000e+00 9.974060000000000059e+01 8.872189999999999799e+00 2.481239999999999952e+02 3.074830000000000041e+02 1.766919752059880333e-01
4.000000000000000000e+00 1.000000000000000000e+00 6.387380000000000280e+01 5.968180000000000263e+01 2.527920000000000016e+02 2.989139999999999873e+02 1.759876586046265068e-01
5.000000000000000000e+00 1.000000000000000000e+00 1.511490000000000009e+02 5.512749999999999595e+00 2.434989999999999952e+02 2.987529999999999859e+02 1.773370104360425248e-01
6.000000000000000000e+00 1.000000000000000000e+00 1.641200000000000045e+02 6.131130000000000260e-03 2.462829999999999870e+02 2.959580000000000268e+02 1.769908011978996165e-01
7.000000000000000000e+00 1.000000000000000000e+00 1.004050000000000011e+02 6.689400000000000013e+00 2.490829999999999984e+02 3.039289999999999736e+02 1.767145870030391308e-01
8.000000000000000000e+00 1.000000000000000000e+00 9.808580000000000609e+01 7.589599999999999902e+00 2.493149999999999977e+02 3.040249999999999773e+02 1.754600362286457549e-01
9.000000000000000000e+00 1.000000000000000000e+00 9.587050000000000693e+01 8.562699999999999534e+00 2.499629999999999939e+02 3.033140000000000214e+02 1.754779710234280476e-01
1.000000000000000000e+01 1.000000000000000000e+00 9.719639999999999702e+01 8.694699999999999207e+00 2.493300000000000125e+02 3.013299999999999841e+02 1.754052315853052990e-01
1.100000000000000000e+01 1.000000000000000000e+00 9.811979999999999791e+01 2.481439999999999912e+01 2.439859999999999900e+02 3.108609999999999900e+02 1.777218768706448349e-01
1.200000000000000000e+01 1.000000000000000000e+00 9.728810000000000002e+01 2.595360000000000156e+01 2.441790000000000020e+02 3.061449999999999818e+02 1.773148936549250321e-01
1.300000000000000000e+01 1.000000000000000000e+00 9.605629999999999313e+01 2.180310000000000059e+01 2.449869999999999948e+02 2.990670000000000073e+02 1.745881803828739642e-01
1.400000000000000000e+01 1.000000000000000000e+00 9.644610000000000127e+01 2.316049999999999898e+01 2.447259999999999991e+02 3.086899999999999977e+02 1.743411361775729362e-01
1.500000000000000000e+01 1.000000000000000000e+00 9.776529999999999632e+01 2.343430000000000035e+01 2.442899999999999920e+02 3.045889999999999986e+02 1.772365068401445809e-01
1.600000000000000000e+01 1.000000000000000000e+00 9.756780000000000541e+01 9.939420000000000144e+00 2.487270000000000039e+02 3.106960000000000264e+02 1.764623022490949267e-01
1.700000000000000000e+01 1.000000000000000000e+00 9.884470000000000312e+01 1.000150000000000006e+01 2.480449999999999875e+02 3.071840000000000259e+02 1.767172509160775118e-01
1.800000000000000000e+01 1.000000000000000000e+00 1.094980000000000047e+02 6.123359999999999914e+00 2.484259999999999877e+02 3.054639999999999986e+02 1.771089478041039389e-01
1.900000000000000000e+01 1.000000000000000000e+00 1.083559999999999945e+02 5.759249999999999758e+00 2.491740000000000066e+02 3.038589999999999804e+02 1.614255947140733893e-01
2.000000000000000000e+01 1.000000000000000000e+00 9.921399999999999864e+01 1.128999999999999915e+01 2.475099999999999909e+02 3.020110000000000241e+02 1.748940105018526592e-01
2.100000000000000000e+01 1.000000000000000000e+00 1.780980000000000132e+02 2.180880000000000152e+01 2.459859999999999900e+02 3.011009999999999991e+02 1.756319239136594490e-01
2.200000000000000000e+01 1.000000000000000000e+00 1.464569999999999936e+02 1.825609999999999999e+01 2.456469999999999914e+02 3.057599999999999909e+02 1.783004417686632481e-01
2.300000000000000000e+01 1.000000000000000000e+00 1.376239999999999952e+02 1.446059999999999945e+01 2.456440000000000055e+02 3.090009999999999764e+02 1.319396962484920277e-01
2.400000000000000000e+01 1.000000000000000000e+00 1.356519999999999868e+02 1.354659999999999975e+01 2.445790000000000077e+02 3.040790000000000077e+02 1.297070070589674828e-01
2.500000000000000000e+01 1.000000000000000000e+00 1.389120000000000061e+02 1.696969999999999956e+01 2.465370000000000061e+02 3.118829999999999814e+02 1.792237659877559397e-01
2.600000000000000000e+01 1.000000000000000000e+00 1.390689999999999884e+02 1.835010000000000119e+01 2.470569999999999879e+02 3.120450000000000159e+02 1.798699673811771094e-01
2.700000000000000000e+01 1.000000000000000000e+00 1.402949999999999875e+02 1.904420000000000002e+01 2.469269999999999925e+02 3.104370000000000118e+02 1.798073166632637720e-01
2.800000000000000000e+01 1.000000000000000000e+00 1.199620000000000033e+02 5.916549999999999976e+00 2.439259999999999877e+02 3.058990000000000009e+02 1.759147002010432725e-01
2.900000000000000000e+01 1.000000000000000000e+00 1.251959999999999980e+02 2.573150000000000048e+00 2.436359999999999957e+02 3.084990000000000236e+02 1.823815760060204239e-01
3.000000000000000000e+01 1.000000000000000000e+00 1.257540000000000049e+02 5.052410000000000068e+00 2.429919999999999902e+02 3.097230000000000132e+02 1.743781855856663954e-01
3.100000000000000000e+01 1.000000000000000000e+00 1.247620000000000005e+02 4.008259999999999934e+00 2.434199999999999875e+02 3.099340000000000259e+02 1.807009294860723037e-01
3.200000000000000000e+01 1.000000000000000000e+00 1.326510000000000105e+02 1.046640000000000015e+01 2.422909999999999968e+02 3.111709999999999923e+02 1.797069753297717565e-01
3.300000000000000000e+01 1.000000000000000000e+00 6.524930000000000518e+01 5.933700000000000330e+01 2.527829999999999870e+02 3.026879999999999882e+02 1.758956530679894048e-01
3.400000000000000000e+01 1.000000000000000000e+00 1.853449999999999989e+02 5.603860000000000241e+01 2.472889999999999873e+02 2.969089999999999918e+02 1.748741010416081654e-01
3.500000000000000000e+01 1.000000000000000000e+00 1.565769999999999982e+02 5.137360000000000326e+01 2.487549999999999955e+02 3.062479999999999905e+02 1.758758453846002712e-01
3.600000000000000000e+01 1.000000000000000000e+00 1.561819999999999879e+02 5.002080000000000126e+01 2.489379999999999882e+02 3.057749999999999773e+02 1.757550563840123148e-01
3.700000000000000000e+01 1.000000000000000000e+00 1.574389999999999930e+02 5.406909999999999883e+01 2.483580000000000041e+02 3.068319999999999936e+02 1.780035138851767673e-01
3.800000000000000000e+01 1.000000000000000000e+00 1.624780000000000086e+02 -1.825620000000000021e+00 2.467150000000000034e+02 3.025579999999999927e+02 1.773623072230276487e-01
3.900000000000000000e+01 1.000000000000000000e+00 1.467539999999999907e+02 -3.593839999999999812e-01 2.435670000000000073e+02 3.062500000000000000e+02 1.742696752674461891e-01
4.000000000000000000e+01 1.000000000000000000e+00 1.460569999999999879e+02 1.576030000000000042e+00 2.422709999999999866e+02 3.000289999999999964e+02 1.694967254162798032e-01
4.100000000000000000e+01 1.000000000000000000e+00 1.457750000000000057e+02 3.357049999999999756e-01 2.429110000000000014e+02 3.052320000000000277e+02 1.718212720615497902e-01
4.200000000000000000e+01 1.000000000000000000e+00 1.437820000000000107e+02 1.416890000000000072e+01 2.447839999999999918e+02 3.028100000000000023e+02 1.805554415249230049e-01
4.300000000000000000e+01 1.000000000000000000e+00 1.488919999999999959e+02 1.689499999999999957e+01 2.450099999999999909e+02 3.025500000000000114e+02 1.784820917105481575e-01
4.400000000000000000e+01 1.000000000000000000e+00 1.487270000000000039e+02 9.847920000000000229e+00 2.436779999999999973e+02 3.015190000000000055e+02 1.764356075843016847e-01
4.500000000000000000e+01 1.000000000000000000e+00 1.644149999999999920e+02 1.388819999999999943e+00 2.459329999999999927e+02 3.018050000000000068e+02 1.767867892188891565e-01
4.600000000000000000e+01 1.000000000000000000e+00 1.654279999999999973e+02 9.688710000000000377e+00 2.444240000000000066e+02 3.057019999999999982e+02 1.772549743061351546e-01
4.700000000000000000e+01 1.000000000000000000e+00 1.510589999999999975e+02 4.076660000000000394e+00 2.434430000000000121e+02 3.053620000000000232e+02 1.765417940157353871e-01
4.800000000000000000e+01 1.000000000000000000e+00 1.627800000000000011e+02 -5.029860000000000442e-01 2.462940000000000111e+02 3.061549999999999727e+02 1.774923293333830754e-01
4.900000000000000000e+01 1.000000000000000000e+00 1.616920000000000073e+02 3.731340000000000212e-01 2.458410000000000082e+02 3.053220000000000027e+02 1.762657694264124775e-01
5.000000000000000000e+01 1.000000000000000000e+00 1.603129999999999882e+02 -8.248060000000000114e-02 2.458249999999999886e+02 3.038740000000000236e+02 1.771014354673247637e-01
5.100000000000000000e+01 1.000000000000000000e+00 1.551850000000000023e+02 -6.178200000000000358e-01 2.456560000000000059e+02 3.029610000000000127e+02 1.786983852208054724e-01
5.200000000000000000e+01 1.000000000000000000e+00 1.554430000000000121e+02 7.673619999999999886e-01 2.452500000000000000e+02 3.068999999999999773e+02 1.786274534932006386e-01
5.300000000000000000e+01 1.000000000000000000e+00 7.065449999999999875e+01 4.475620000000000154e+00 2.486109999999999900e+02 3.031379999999999768e+02 1.781997082444366776e-01
5.400000000000000000e+01 1.000000000000000000e+00 6.946089999999999520e+01 3.860840000000000050e+00 2.481560000000000059e+02 2.999519999999999982e+02 1.679044947353994233e-01
5.500000000000000000e+01 1.000000000000000000e+00 1.017570000000000050e+02 6.930049999999999599e+00 2.487640000000000100e+02 3.089990000000000236e+02 1.804411797104104043e-01
5.600000000000000000e+01 1.000000000000000000e+00 1.150289999999999964e+02 4.092299999999999827e+00 2.462750000000000057e+02 3.073690000000000282e+02 1.783841921219487536e-01
5.700000000000000000e+01 1.000000000000000000e+00 1.149039999999999964e+02 2.752689999999999859e+00 2.467309999999999945e+02 3.091700000000000159e+02 1.789117447870041400e-01
5.800000000000000000e+01 1.000000000000000000e+00 7.171189999999999998e+01 3.578609999999999847e+00 2.490939999999999941e+02 3.031879999999999882e+02 1.750749578541464790e-01
5.900000000000000000e+01 1.000000000000000000e+00 1.349470000000000027e+02 2.715109999999999957e+01 2.488129999999999882e+02 3.061929999999999836e+02 1.267076322887265016e-01
6.000000000000000000e+01 1.000000000000000000e+00 1.370610000000000070e+02 2.562750000000000128e+01 2.488950000000000102e+02 3.068790000000000191e+02 1.736353796049860121e-01
6.100000000000000000e+01 1.000000000000000000e+00 1.371179999999999950e+02 2.696229999999999905e+01 2.488629999999999995e+02 3.009510000000000218e+02 1.418534470050081264e-01
6.200000000000000000e+01 1.000000000000000000e+00 1.382330000000000041e+02 2.480180000000000007e+01 2.487090000000000032e+02 3.041940000000000168e+02 1.770453216890183756e-01
6.300000000000000000e+01 1.000000000000000000e+00 9.358580000000000609e+01 3.325359999999999872e+01 2.434089999999999918e+02 3.094340000000000259e+02 1.503947399584207034e-01
6.400000000000000000e+01 1.000000000000000000e+00 9.589700000000000557e+01 3.165429999999999922e+01 2.428530000000000086e+02 3.046480000000000246e+02 1.292147277203733180e-01
6.500000000000000000e+01 1.000000000000000000e+00 9.687510000000000332e+01 3.245680000000000121e+01 2.432460000000000093e+02 3.030520000000000209e+02 1.749927899040844836e-01
6.600000000000000000e+01 1.000000000000000000e+00 1.299360000000000070e+02 3.401050000000000040e+01 2.514929999999999950e+02 3.022040000000000077e+02 1.724511984598861847e-01
6.700000000000000000e+01 1.000000000000000000e+00 1.377330000000000041e+02 3.304789999999999850e+01 2.478420000000000130e+02 3.084569999999999936e+02 1.802691691028638077e-01
6.800000000000000000e+01 1.000000000000000000e+00 1.537379999999999995e+02 5.427709999999999724e+01 2.477359999999999900e+02 3.028860000000000241e+02 1.754947600919267714e-01
6.900000000000000000e+01 1.000000000000000000e+00 1.555949999999999989e+02 5.237019999999999698e+01 2.485219999999999914e+02 3.070120000000000005e+02 1.753359756067404129e-01
7.000000000000000000e+01 1.000000000000000000e+00 1.560240000000000009e+02 5.371500000000000341e+01 2.482889999999999873e+02 3.038179999999999836e+02 1.768561115898726888e-01
7.100000000000000000e+01 1.000000000000000000e+00 1.550649999999999977e+02 5.471029999999999660e+01 2.479550000000000125e+02 2.998159999999999741e+02 1.765155253040267547e-01
7.200000000000000000e+01 1.000000000000000000e+00 1.527990000000000066e+02 5.519830000000000325e+01 2.470900000000000034e+02 3.047590000000000146e+02 1.763170799046309134e-01
7.300000000000000000e+01 1.000000000000000000e+00 1.486150000000000091e+02 5.730349999999999966e+01 2.448499999999999943e+02 3.095330000000000155e+02 1.786000722614022596e-01
7.400000000000000000e+01 1.000000000000000000e+00 1.514519999999999982e+02 5.474539999999999651e+01 2.467880000000000109e+02 3.011580000000000155e+02 1.763527035399526932e-01
7.500000000000000000e+01 1.000000000000000000e+00 1.505459999999999923e+02 5.554500000000000171e+01 2.460860000000000127e+02 3.024549999999999841e+02 1.756078433259756211e-01
7.600000000000000000e+01 1.000000000000000000e+00 1.398259999999999934e+02 6.595669999999999789e+01 2.460660000000000025e+02 3.055520000000000209e+02 1.768666475764663071e-01
7.700000000000000000e+01 1.000000000000000000e+00 1.409120000000000061e+02 6.499379999999999313e+01 2.460240000000000009e+02 3.074150000000000205e+02 1.754184933038351046e-01
7.800000000000000000e+01 1.000000000000000000e+00 1.423100000000000023e+02 -1.337919999999999998e+00 2.440540000000000020e+02 3.044970000000000141e+02 1.781536255003816349e-01
7.900000000000000000e+01 1.000000000000000000e+00 1.400060000000000002e+02 6.737160000000000082e+01 2.458040000000000020e+02 3.029590000000000032e+02 1.803815195562516183e-01
8.000000000000000000e+01 1.000000000000000000e+00 1.413429999999999893e+02 6.787069999999999936e+01 2.456090000000000089e+02 3.087640000000000100e+02 1.797350554795871524e-01
8.100000000000000000e+01 1.000000000000000000e+00 8.190930000000000177e+01 -1.476239999999999997e+00 2.517529999999999859e+02 3.021949999999999932e+02 1.761916305128806148e-01
8.200000000000000000e+01 1.000000000000000000e+00 9.662260000000000559e+01 1.938459999999999894e+01 2.454019999999999868e+02 3.081200000000000045e+02 1.772505771416290898e-01
8.300000000000000000e+01 1.000000000000000000e+00 9.698480000000000700e+01 2.071290000000000120e+01 2.449449999999999932e+02 3.082620000000000005e+02 1.757802978524593551e-01
8.400000000000000000e+01 1.000000000000000000e+00 9.945610000000000639e+01 2.499930000000000163e+01 2.436759999999999877e+02 3.054470000000000027e+02 1.737654556480434931e-01
8.500000000000000000e+01 1.000000000000000000e+00 1.004170000000000016e+02 2.392670000000000030e+01 2.435360000000000014e+02 3.061009999999999991e+02 1.721476122920373164e-01
8.600000000000000000e+01 1.000000000000000000e+00 1.016629999999999967e+02 2.472929999999999851e+01 2.433400000000000034e+02 3.005799999999999841e+02 1.735180688493309364e-01
8.700000000000000000e+01 1.000000000000000000e+00 9.994230000000000302e+01 2.635640000000000072e+01 2.435219999999999914e+02 3.057280000000000086e+02 1.717531572693477560e-01
8.800000000000000000e+01 1.000000000000000000e+00 1.013280000000000030e+02 2.615319999999999823e+01 2.432510000000000048e+02 3.097130000000000223e+02 1.717279745689836157e-01
8.900000000000000000e+01 1.000000000000000000e+00 9.827519999999999811e+01 1.606859999999999999e+01 2.463199999999999932e+02 3.087529999999999859e+02 1.790832514505726336e-01
9.000000000000000000e+01 1.000000000000000000e+00 9.964929999999999666e+01 1.623969999999999914e+01 2.459269999999999925e+02 2.998530000000000086e+02 1.804356375401544588e-01
9.100000000000000000e+01 1.000000000000000000e+00 1.000529999999999973e+02 1.752749999999999986e+01 2.453480000000000132e+02 3.048580000000000041e+02 1.786108386741360743e-01
9.200000000000000000e+01 1.000000000000000000e+00 9.903679999999999950e+01 1.858409999999999940e+01 2.452040000000000077e+02 3.032649999999999864e+02 1.785520112335005072e-01
9.300000000000000000e+01 1.000000000000000000e+00 9.726539999999999964e+01 1.711459999999999937e+01 2.461419999999999959e+02 3.069409999999999741e+02 1.778274866247663011e-01
9.400000000000000000e+01 1.000000000000000000e+00 9.760429999999999495e+01 1.833160000000000167e+01 2.455010000000000048e+02 3.046789999999999736e+02 1.771572524085274769e-01
9.500000000000000000e+01 1.000000000000000000e+00 9.542929999999999779e+01 1.096110000000000007e+01 2.494480000000000075e+02 3.067889999999999873e+02 1.740486914881080871e-01
9.600000000000000000e+01 1.000000000000000000e+00 9.671330000000000382e+01 1.108949999999999925e+01 2.488019999999999925e+02 3.038620000000000232e+02 1.756374663588105012e-01
9.700000000000000000e+01 1.000000000000000000e+00 1.074300000000000068e+02 6.686040000000000205e+00 2.489749999999999943e+02 3.046530000000000200e+02 1.293629610016363840e-01
9.800000000000000000e+01 1.000000000000000000e+00 1.045439999999999969e+02 7.735739999999999839e+00 2.482439999999999998e+02 3.028650000000000091e+02 1.785265856258368145e-01
9.900000000000000000e+01 1.000000000000000000e+00 1.106140000000000043e+02 5.224160000000000359e+00 2.483240000000000123e+02 3.075360000000000014e+02 1.766356567414713585e-01
1.000000000000000000e+02 1.000000000000000000e+00 1.082669999999999959e+02 4.520730000000000359e+00 2.497630000000000052e+02 3.042090000000000032e+02 1.741234740695103700e-01
1.010000000000000000e+02 1.000000000000000000e+00 1.794180000000000064e+02 3.453820000000000334e+01 2.449879999999999995e+02 3.034490000000000123e+02 1.634071446284989237e-01
1.020000000000000000e+02 1.000000000000000000e+00 1.335819999999999936e+02 1.347739999999999938e+00 2.433439999999999941e+02 3.062529999999999859e+02 1.730413522654379588e-01
1.030000000000000000e+02 1.000000000000000000e+00 1.400829999999999984e+02 1.894290000000000029e+00 2.432259999999999991e+02 2.994110000000000014e+02 1.804202118967901391e-01
1.040000000000000000e+02 1.000000000000000000e+00 1.412500000000000000e+02 4.171590000000000131e+00 2.430149999999999864e+02 3.038229999999999791e+02 1.641995819024879011e-01
1.050000000000000000e+02 1.000000000000000000e+00 1.400869999999999891e+02 3.354839999999999822e+00 2.431399999999999864e+02 3.087359999999999900e+02 1.803276858270477789e-01
1.060000000000000000e+02 1.000000000000000000e+00 1.304099999999999966e+02 7.384839999999999627e+00 2.419459999999999980e+02 3.007149999999999750e+02 1.796187651573333544e-01
1.070000000000000000e+02 1.000000000000000000e+00 1.300749999999999886e+02 1.031760000000000055e+01 2.421980000000000075e+02 3.073690000000000282e+02 1.809766234413046349e-01
1.080000000000000000e+02 1.000000000000000000e+00 1.316009999999999991e+02 8.301230000000000331e+00 2.418930000000000007e+02 3.097850000000000250e+02 1.796576043471689310e-01
1.090000000000000000e+02 1.000000000000000000e+00 1.314689999999999941e+02 9.687070000000000292e+00 2.420949999999999989e+02 3.037359999999999900e+02 1.811493947819881878e-01
1.100000000000000000e+02 1.000000000000000000e+00 1.340800000000000125e+02 1.736929999999999907e+01 2.475850000000000080e+02 3.099270000000000209e+02 1.758160661610070619e-01
1.110000000000000000e+02 1.000000000000000000e+00 1.350540000000000020e+02 1.197470000000000034e+01 2.431769999999999925e+02 3.066829999999999927e+02 1.774370632626321997e-01
1.120000000000000000e+02 1.000000000000000000e+00 1.362580000000000098e+02 1.261389999999999922e+01 2.438369999999999891e+02 3.075099999999999909e+02 1.670346413215287318e-01
1.130000000000000000e+02 1.000000000000000000e+00 1.381860000000000070e+02 2.340520000000000067e+01 2.485130000000000052e+02 3.078199999999999932e+02 1.784960894937227260e-01
1.140000000000000000e+02 1.000000000000000000e+00 1.417100000000000080e+02 2.114470000000000027e+01 2.471380000000000052e+02 3.100899999999999750e+02 1.764685190672386772e-01
1.150000000000000000e+02 1.000000000000000000e+00 1.404499999999999886e+02 2.043949999999999889e+01 2.473160000000000025e+02 3.026920000000000073e+02 1.796114293051361832e-01
1.160000000000000000e+02 1.000000000000000000e+00 1.392909999999999968e+02 2.119089999999999918e+01 2.478710000000000093e+02 3.086039999999999850e+02 1.771590239838218839e-01
1.170000000000000000e+02 1.000000000000000000e+00 1.393439999999999941e+02 2.258729999999999905e+01 2.481289999999999907e+02 3.017189999999999941e+02 1.767450873430960745e-01
1.180000000000000000e+02 1.000000000000000000e+00 1.451819999999999879e+02 1.902100000000000080e+01 2.459610000000000127e+02 3.029420000000000073e+02 1.797693260242977653e-01
1.190000000000000000e+02 1.000000000000000000e+00 1.428530000000000086e+02 2.041710000000000136e+01 2.466990000000000123e+02 3.045190000000000055e+02 1.774205132912572147e-01
1.200000000000000000e+02 1.000000000000000000e+00 1.375730000000000075e+02 1.649020000000000152e+01 2.468650000000000091e+02 3.074250000000000114e+02 1.754478757525948507e-01
1.210000000000000000e+02 1.000000000000000000e+00 1.368950000000000102e+02 1.533670000000000044e+01 2.463540000000000134e+02 3.070880000000000223e+02 1.652819183317256746e-01
1.220000000000000000e+02 1.000000000000000000e+00 1.365840000000000032e+02 1.722220000000000084e+01 2.476140000000000043e+02 3.062900000000000205e+02 1.738165944122720130e-01
1.230000000000000000e+02 1.000000000000000000e+00 1.353019999999999925e+02 1.662330000000000041e+01 2.475080000000000098e+02 3.048199999999999932e+02 1.719681605379931311e-01
1.240000000000000000e+02 1.000000000000000000e+00 1.354470000000000027e+02 1.547470000000000034e+01 2.466920000000000073e+02 3.062769999999999868e+02 1.736771008475875289e-01
1.250000000000000000e+02 1.000000000000000000e+00 1.414559999999999889e+02 1.833419999999999916e+01 2.464089999999999918e+02 3.057160000000000082e+02 1.828142824587834503e-01
1.260000000000000000e+02 1.000000000000000000e+00 1.427589999999999861e+02 1.902710000000000079e+01 2.463040000000000020e+02 3.030140000000000100e+02 1.804306284534678562e-01
1.270000000000000000e+02 1.000000000000000000e+00 1.439389999999999930e+02 1.834649999999999892e+01 2.459300000000000068e+02 3.080029999999999859e+02 1.792791759234038662e-01
1.280000000000000000e+02 1.000000000000000000e+00 1.438919999999999959e+02 1.692569999999999908e+01 2.456040000000000134e+02 3.045799999999999841e+02 1.810968217858182350e-01
1.290000000000000000e+02 1.000000000000000000e+00 1.425389999999999873e+02 1.489059999999999917e+01 2.450989999999999895e+02 3.084479999999999791e+02 1.828136141134701631e-01
1.300000000000000000e+02 1.000000000000000000e+00 1.425579999999999927e+02 1.632239999999999824e+01 2.454869999999999948e+02 3.067210000000000036e+02 1.838254837078097115e-01
1.310000000000000000e+02 1.000000000000000000e+00 1.413209999999999980e+02 1.698539999999999850e+01 2.459379999999999882e+02 3.024689999999999941e+02 1.820953622149284190e-01
1.320000000000000000e+02 1.000000000000000000e+00 1.400709999999999980e+02 1.630679999999999907e+01 2.459389999999999930e+02 3.034730000000000132e+02 1.759715241834916566e-01
1.330000000000000000e+02 1.000000000000000000e+00 1.412940000000000111e+02 1.276050000000000040e+01 2.445900000000000034e+02 3.065760000000000218e+02 1.820417573566363023e-01
1.340000000000000000e+02 1.000000000000000000e+00 1.387460000000000093e+02 1.406869999999999976e+01 2.450300000000000011e+02 3.033750000000000000e+02 1.727871493654131729e-01
1.350000000000000000e+02 1.000000000000000000e+00 1.399919999999999902e+02 1.489230000000000054e+01 2.452539999999999907e+02 3.043419999999999845e+02 1.768984574164270962e-01
1.360000000000000000e+02 1.000000000000000000e+00 1.412860000000000014e+02 1.418270000000000053e+01 2.449720000000000084e+02 3.041000000000000227e+02 1.834496204673459474e-01
1.370000000000000000e+02 1.000000000000000000e+00 1.376690000000000111e+02 1.069270000000000032e+01 2.434029999999999916e+02 3.045289999999999964e+02 1.797006493773190272e-01
1.380000000000000000e+02 1.000000000000000000e+00 1.375780000000000030e+02 1.211320000000000086e+01 2.438689999999999998e+02 3.056589999999999918e+02 1.792370881929010729e-01
1.390000000000000000e+02 1.000000000000000000e+00 1.387580000000000098e+02 1.280020000000000024e+01 2.442870000000000061e+02 3.063969999999999914e+02 1.813640664509345579e-01
1.400000000000000000e+02 1.000000000000000000e+00 1.400029999999999859e+02 1.206630000000000003e+01 2.442709999999999866e+02 3.045649999999999977e+02 1.802746520900238292e-01
1.410000000000000000e+02 1.000000000000000000e+00 1.734900000000000091e+02 2.652280000000000015e+01 2.459199999999999875e+02 3.003129999999999882e+02 1.767228434977992646e-01
1.420000000000000000e+02 1.000000000000000000e+00 1.736980000000000075e+02 2.942780000000000129e+01 2.457729999999999961e+02 2.981080000000000041e+02 1.807591555855926624e-01
1.430000000000000000e+02 1.000000000000000000e+00 1.779389999999999930e+02 2.034329999999999927e+01 2.461430000000000007e+02 2.979990000000000236e+02 1.735888170538134045e-01
1.440000000000000000e+02 1.000000000000000000e+00 1.489300000000000068e+02 1.827400000000000091e+01 2.452969999999999970e+02 3.012450000000000045e+02 1.778844914134012356e-01
1.450000000000000000e+02 1.000000000000000000e+00 1.477359999999999900e+02 1.897919999999999874e+01 2.456490000000000009e+02 3.029080000000000155e+02 1.784839489398458712e-01
1.460000000000000000e+02 1.000000000000000000e+00 1.224669999999999987e+02 5.419380000000000308e+00 2.434310000000000116e+02 3.098360000000000127e+02 1.667875604244467014e-01
1.470000000000000000e+02 1.000000000000000000e+00 1.233250000000000028e+02 4.241970000000000240e+00 2.436750000000000114e+02 3.085710000000000264e+02 1.755004091964837420e-01
1.480000000000000000e+02 1.000000000000000000e+00 1.211020000000000039e+02 5.066519999999999690e+00 2.438019999999999925e+02 3.083570000000000277e+02 1.756777094913833104e-01
1.490000000000000000e+02 1.000000000000000000e+00 1.337030000000000030e+02 1.247680000000000078e+01 2.433269999999999982e+02 3.117950000000000159e+02 1.809146281380178134e-01
1.500000000000000000e+02 1.000000000000000000e+00 1.325540000000000020e+02 1.179579999999999984e+01 2.427529999999999859e+02 3.010260000000000105e+02 1.767342822551458692e-01
1.510000000000000000e+02 1.000000000000000000e+00 1.190030000000000001e+02 8.216779999999999973e+00 2.437909999999999968e+02 3.128620000000000232e+02 1.781139144289789478e-01
1.520000000000000000e+02 1.000000000000000000e+00 1.200919999999999987e+02 7.260299999999999976e+00 2.435840000000000032e+02 3.122370000000000232e+02 1.666429037415864123e-01
1.530000000000000000e+02 1.000000000000000000e+00 1.230030000000000001e+02 6.560660000000000380e+00 2.430550000000000068e+02 3.069700000000000273e+02 1.362486367229042428e-01
1.540000000000000000e+02 1.000000000000000000e+00 1.211350000000000051e+02 8.030849999999999156e+00 2.431980000000000075e+02 3.079379999999999882e+02 1.388064249090080748e-01
1.550000000000000000e+02 1.000000000000000000e+00 1.216119999999999948e+02 9.310499999999999332e+00 2.430370000000000061e+02 3.100830000000000268e+02 1.691418150889857086e-01
1.560000000000000000e+02 1.000000000000000000e+00 1.266280000000000001e+02 2.221389999999999976e+00 2.436260000000000048e+02 3.103340000000000032e+02 1.797455689359734321e-01
1.570000000000000000e+02 1.000000000000000000e+00 1.326370000000000005e+02 -7.713809999999999834e-01 2.442880000000000109e+02 3.040240000000000009e+02 1.673704575672393391e-01
1.580000000000000000e+02 1.000000000000000000e+00 1.349799999999999898e+02 -6.316089999999999760e-01 2.437560000000000002e+02 3.040049999999999955e+02 1.722482367978174223e-01
1.590000000000000000e+02 1.000000000000000000e+00 1.337259999999999991e+02 -5.460330000000000045e-02 2.437520000000000095e+02 3.095729999999999791e+02 1.776174568449074564e-01
1.600000000000000000e+02 1.000000000000000000e+00 7.240340000000000487e+01 6.070329999999999870e+01 2.509250000000000114e+02 3.040310000000000059e+02 1.810953345422157412e-01
1.610000000000000000e+02 1.000000000000000000e+00 7.026399999999999579e+01 5.883339999999999748e+01 2.515469999999999970e+02 2.975889999999999986e+02 1.794314184733187545e-01
1.620000000000000000e+02 1.000000000000000000e+00 8.163500000000000512e+01 7.029049999999999443e+01 2.519509999999999934e+02 3.025149999999999864e+02 1.795348483696050379e-01
1.630000000000000000e+02 1.000000000000000000e+00 8.168200000000000216e+01 6.881959999999999411e+01 2.518540000000000134e+02 2.992429999999999950e+02 1.827933121326871246e-01
1.640000000000000000e+02 1.000000000000000000e+00 1.237480000000000047e+02 3.667379999999999995e+01 2.496390000000000100e+02 3.085110000000000241e+02 1.782069220593066883e-01
1.650000000000000000e+02 1.000000000000000000e+00 8.059310000000000684e+01 6.784189999999999543e+01 2.520029999999999859e+02 3.032119999999999891e+02 1.805272223287615052e-01
1.660000000000000000e+02 1.000000000000000000e+00 7.720610000000000639e+01 6.388349999999999795e+01 2.514000000000000057e+02 3.026920000000000073e+02 1.775572739707458325e-01
1.670000000000000000e+02 1.000000000000000000e+00 7.851860000000000639e+01 6.336639999999999873e+01 2.510660000000000025e+02 3.011250000000000000e+02 1.776372252813634423e-01
1.680000000000000000e+02 1.000000000000000000e+00 7.854040000000000532e+01 6.210699999999999932e+01 2.503689999999999998e+02 3.009250000000000114e+02 1.762023660902512501e-01
1.690000000000000000e+02 1.000000000000000000e+00 1.870860000000000127e+02 5.004679999999999751e+01 2.460720000000000027e+02 3.042459999999999809e+02 1.794487550702940082e-01