ITEM: TIMESTEP
5000000
ITEM: NUMBER OF ATOMS
6459
ITEM: BOX BOUNDS pp pp pp
-7.7345425670859935e+00 2.1773454256708615e+02
-2.3739093354904872e+00 7.2373909335491717e+01
0.0000000000000000e+00 5.0000000000000000e+02
ITEM: ATOMS id type x y z f_5
5700 1 11.9937 -1.55496 246.476 0
4741 1 -7.11435 16.1357 246.516 0
1687 1 -6.14973 15.1107 246.864 0
4740 1 -6.70244 17.5595 246.557 0
1688 1 -5.32052 17.8434 246.86 0
4743 1 -7.66953 18.6418 246.468 0
2431 1 -7.33511 19.9746 246.733 0
4900 1 9.48717 -1.81792 247.521 0
5701 1 14.6012 -1.93727 248.077 0
5702 1 8.29421 -0.210961 248.229 0
5703 1 9.57198 -0.454381 247.646 0
5705 1 10.7754 0.259179 247.605 0
5698 1 11.9934 -0.424746 247.152 0
5699 1 13.0574 0.128711 247.762 0
6133 1 11.0242 1.44863 248.338 0
296 1 -6.25707 11.5139 248.077 0
1484 1 -7.65036 11.2174 248.164 0
295 1 -5.76744 12.736 247.583 0
1694 1 -4.34747 13.0604 247.713 0
1693 1 -3.42507 12.0564 248.135 0
1691 1 -2.00522 12.3608 248.21 0
1681 1 0.848586 12.8605 248.419 0
4756 1 -6.63968 13.7608 247.125 0
1692 1 -3.80441 14.3901 247.504 0
1689 1 -2.48514 14.7096 247.742 0
1690 1 -1.52079 13.6606 248.015 0
1683 1 -0.0899824 13.9617 248.163 0
4885 1 2.64987 14.5958 248.43 0
1686 1 -4.75254 15.4293 247.151 0
2591 1 -2.05925 16.0801 247.713 0
1684 1 0.2915 15.3607 248.083 0
1682 1 1.70847 15.6974 248.283 0
1685 1 -4.39482 16.8263 247.12 0
2594 1 -3.00865 17.1701 247.442 0
2592 1 -0.725315 16.4185 247.962 0
2593 1 -0.313701 17.8039 248.1 0
840 1 -4.99138 19.2222 247.114 0
2595 1 -2.65598 18.5369 247.673 0
2596 1 -1.31714 18.8307 247.992 0
1530 1 1.03183 18.1558 248.331 0
841 1 -6.01894 20.2865 247.044 0
1674 1 -3.66476 19.5824 247.479 0
1680 1 -3.37953 20.9338 247.844 0
1673 1 -1.00413 20.2002 248.229 0
1675 1 -5.73403 21.6122 247.429 0
1678 1 -4.40993 21.9201 247.829 0
1679 1 -2.02319 21.2372 248.213 0
2430 1 -6.80495 22.6193 247.588 0
1457 1 -6.45007 23.9517 247.879 0
1677 1 -4.02771 23.3206 248.217 0
1456 1 -7.54571 24.9594 247.932 0
1676 1 -5.07807 24.3214 248.11 0
1453 1 -7.21987 26.3034 248.303 0
2403 1 -7.12698 -1.66011 249.475 0
2813 1 -4.75506 -2.06427 249.895 0
2589 1 0.493257 -1.66036 249.98 0
1532 1 2.87946 -2.16916 249.655 0
1533 1 1.86675 -1.18736 249.854 0
3756 1 4.28516 -1.6948 249.35 0
3755 1 6.64448 -2.19447 248.734 0
4901 1 15.4614 -1.58773 249.076 0
1442 1 -6.81525 -0.233547 249.379 0
2815 1 -5.44833 0.225452 249.606 0
2814 1 -4.40142 -0.712783 249.832 0
2587 1 -3.07179 -0.23492 249.98 0
1531 1 2.20322 0.228816 249.876 0
3754 1 4.56363 -0.233165 249.27 0
2600 1 3.50287 0.699853 249.595 0
3753 1 5.90493 0.36957 248.989 0
3752 1 7.01497 -0.606348 248.615 0
4902 1 15.718 -0.289532 249.641 0
3596 1 -7.39449 1.95991 249.478 0
5056 1 -5.20161 1.71628 249.688 0
2606 1 3.70016 2.20254 249.637 0
2599 1 6.05026 1.96951 249.074 0
5704 1 8.55401 2.07053 248.709 0
6136 1 12.3396 1.7881 248.927 0
5696 1 13.5368 0.880193 248.774 0
5697 1 14.7326 0.857147 249.507 0
3597 1 -6.31034 2.70841 249.724 0
2605 1 2.5563 2.75191 249.98 0
2604 1 4.94682 2.93051 249.304 0
5693 1 7.33527 2.60266 248.971 0
6132 1 9.87639 2.30092 248.681 0
6131 1 10.1642 3.61123 249.225 0
6135 1 12.617 3.05924 249.535 0
3595 1 -7.20097 5.12787 249.51 0
5055 1 -6.13445 4.13916 249.838 0
2603 1 2.79136 5.17052 249.981 0
2601 1 5.13103 4.489 249.357 0
5694 1 7.61903 4.11 249.156 0
3744 1 6.51678 5.00435 249.262 0
5695 1 9.00888 4.52836 249.344 0
6134 1 11.5106 3.95953 249.569 0
4897 1 11.7766 5.31339 249.956 0
1482 1 -6.76348 6.57021 249.461 0
2585 1 -5.3358 6.85795 249.662 0
2602 1 4.06509 5.53676 249.622 0
3742 1 6.85359 6.47163 249.379 0
4895 1 9.32641 5.92385 249.584 0
3743 1 8.22552 6.92873 249.527 0
4896 1 10.6843 6.32774 249.821 0
2586 1 -4.92351 8.28954 249.421 0
4879 1 1.78224 8.07802 249.652 0
4880 1 3.28433 8.26285 249.449 0
3737 1 4.32615 7.05762 249.467 0
3738 1 5.74544 7.46809 249.408 0
3750 1 8.58721 8.36826 249.625 0
3745 1 11.0817 7.75708 249.968 0
2472 1 -7.26442 8.921 249.001 0
1695 1 -5.85025 9.28797 249.031 0
2583 1 -3.5589 8.59301 249.614 0
843 1 -3.01372 9.83706 249.208 0
2579 1 -0.667077 9.15888 249.708 0
4882 1 0.859789 9.27355 249.522 0
4884 1 3.77356 9.67267 249.244 0
3740 1 6.19496 8.8908 249.359 0
3739 1 5.2361 9.99811 249.183 0
3749 1 7.55023 9.36891 249.523 0
3748 1 10.0389 8.75056 249.734 0
842 1 -5.3016 10.5358 248.577 0
844 1 -3.90863 10.8369 248.689 0
2580 1 -1.60738 10.0963 249.171 0
2581 1 -1.07209 11.3194 248.61 0
4881 1 1.36003 10.5205 249.067 0
2582 1 0.359612 11.555 248.692 0
4883 1 2.77106 10.7834 248.979 0
3741 1 5.59051 11.4182 249.127 0
5689 1 7.98461 10.7582 249.478 0
5692 1 9.41023 11.1679 249.607 0
3751 1 10.409 10.1347 249.8 0
4886 1 3.23299 12.1377 248.739 0
4889 1 4.582 12.4885 248.975 0
5688 1 6.97537 11.7992 249.262 0
5691 1 9.78201 12.5516 249.609 0
3747 1 11.152 12.964 249.917 0
4887 1 2.256 13.2075 248.483 0
4890 1 5.01087 13.9387 248.865 0
4894 1 6.39505 14.2527 248.992 0
5687 1 7.35635 13.1988 249.216 0
5690 1 8.72613 13.5559 249.428 0
2562 1 11.4979 14.3679 249.964 0
4888 1 4.05145 15.0372 248.742 0
4893 1 6.82004 15.6669 249 0
4891 1 8.21245 16.0159 249.172 0
4892 1 9.17187 14.9664 249.389 0
777 1 10.5091 15.4006 249.7 0
1529 1 2.04351 17.1634 248.478 0
2597 1 4.39636 16.4404 248.796 0
779 1 3.44574 17.4868 248.69 0
2598 1 5.78536 16.7664 248.97 0
3733 1 8.52309 17.4322 249.385 0
778 1 10.874 16.7992 249.743 0
3734 1 9.88573 17.8607 249.635 0
776 1 12.2592 17.1785 249.933 0
1525 1 3.76463 18.8432 248.835 0
2575 1 5.17999 19.1974 248.955 0
2574 1 6.16722 18.1589 249.027 0
3736 1 7.54913 18.5291 249.261 0
3735 1 10.2362 19.2923 249.716 0
839 1 0.343033 20.5585 248.608 0
838 1 1.38778 19.5345 248.614 0
1526 1 2.75902 19.89 248.801 0
2576 1 5.52341 20.6121 249.146 0
4878 1 7.89766 19.9306 249.414 0
4873 1 6.90809 20.9728 249.313 0
4877 1 9.25515 20.3469 249.671 0
2566 1 11.6342 19.6404 249.97 0
2818 1 0.723432 21.9167 248.931 0
5816 1 2.12289 22.2573 249.05 0
5815 1 3.10726 21.2347 249.034 0
5814 1 4.49094 21.6002 249.168 0
4875 1 7.24029 22.3681 249.473 0
4874 1 9.63401 21.752 249.802 0
3726 1 11.0233 22.0998 249.936 0
4019 1 -2.67203 23.6668 248.531 0
4020 1 -1.65058 22.626 248.573 0
4021 1 -0.285869 22.9474 248.896 0
5818 1 2.44927 23.6677 249.145 0
5819 1 3.84938 24.0371 249.305 0
5817 1 4.88358 23.0132 249.301 0
4022 1 6.27704 23.3853 249.419 0
4876 1 8.64882 22.7193 249.645 0
3725 1 11.3972 23.5206 249.979 0
6344 1 -2.37188 25.0846 248.803 0
6342 1 -0.986302 25.3867 248.962 0
4018 1 0.0576237 24.3433 249.057 0
5084 1 1.41971 24.7145 249.212 0
5811 1 4.2141 25.4628 249.547 0
4023 1 6.60189 24.8365 249.573 0
2573 1 8.01932 25.1605 249.701 0
3728 1 8.98906 24.1196 249.706 0
3727 1 10.3855 24.5333 249.882 0
1672 1 -4.75543 25.6952 248.469 0
2817 1 -5.82209 26.7063 248.448 0
6346 1 -3.39881 26.0473 248.742 0
6343 1 -0.596896 26.7747 249.171 0
6200 1 0.728238 27.1205 249.37 0
5083 1 1.77444 26.1414 249.312 0
5809 1 3.1571 26.4909 249.47 0
5812 1 5.62211 25.8782 249.692 0
3730 1 8.38343 26.6392 249.787 0
3732 1 9.78813 26.9921 249.936 0
5092 1 -5.5219 28.085 248.819 0
5096 1 -4.10804 28.379 249.069 0
6347 1 -3.03749 27.4039 249.005 0
6345 1 -1.68149 27.7763 249.2 0
6201 1 1.08697 28.5457 249.631 0
5808 1 3.57944 27.899 249.667 0
5813 1 5.97428 27.249 249.814 0
5810 1 4.96635 28.2761 249.805 0
4025 1 7.36033 27.6595 249.783 0
3731 1 10.187 28.374 249.971 0
2411 1 -6.58117 29.1038 248.923 0
5097 1 -3.73036 29.7927 249.376 0
5831 1 -2.33712 30.1042 249.551 0
6202 1 -1.30574 29.115 249.476 0
6199 1 0.0461361 29.4976 249.675 0
4030 1 2.46885 28.9001 249.76 0
4031 1 2.85711 30.2894 249.743 0
5087 1 5.35629 29.653 249.769 0
5086 1 6.71527 30.1086 249.776 0
4024 1 7.75983 29.0499 249.767 0
3729 1 9.15619 29.4181 249.849 0
3722 1 11.9245 30.1443 249.874 0
5093 1 -6.21262 30.4801 249.18 0
3541 1 -7.28699 31.481 249.288 0
5094 1 -4.84253 30.7859 249.482 0
5830 1 -2.07018 31.4877 249.809 0
5833 1 0.382615 30.9109 249.833 0
5822 1 1.76135 31.3017 249.796 0
5089 1 4.31445 30.6504 249.758 0
5085 1 7.0415 31.4985 249.62 0
2863 1 8.42373 31.8545 249.477 0
2862 1 9.50551 30.8247 249.716 0
3723 1 10.9141 31.1561 249.716 0
3719 1 13.3607 30.4798 250 0
3720 1 13.8255 31.8329 249.866 0
3546 1 -6.9435 32.8103 249.726 0
4027 1 -5.56802 33.187 249.899 0
4028 1 -4.51744 32.1601 249.851 0
4029 1 -3.12758 32.4568 249.994 0
5832 1 -0.639282 31.8891 249.845 0
5823 1 2.10097 32.7018 249.965 0
5090 1 4.6056 32.1056 249.783 0
5091 1 3.50592 33.0988 249.828 0
5088 1 5.98823 32.5563 249.636 0
2864 1 8.77909 33.2327 249.185 0
3724 1 11.3183 32.5182 249.465 0
3721 1 12.7751 32.8916 249.584 0
3717 1 15.2435 32.1884 249.984 0
5897 1 29.2523 32.2031 249.873 0
5877 1 3.81081 34.5266 249.786 0
2860 1 6.31148 33.9937 249.383 0
5878 1 5.18296 34.9861 249.478 0
2819 1 7.67579 34.2885 248.991 0
5205 1 10.4874 34.7548 248.54 0
2861 1 10.2412 33.4956 249.074 0
4162 1 13.3691 34.215 249.484 0
4161 1 14.7416 34.6506 249.81 0
4793 1 28.7219 34.5481 249.995 0
2588 1 -1.98725 -1.179 250.048 0
4770 1 20.2685 -1.71056 250.99 0
5583 1 21.6412 -1.25317 251.385 0
4009 1 -0.360543 0.653608 250.18 0
2590 1 -0.639212 -0.753386 250.12 0
4898 1 16.8851 0.0211361 250.315 0
4768 1 17.9773 -0.741583 250.519 0
4769 1 19.271 -0.680161 250.982 0
5586 1 19.5369 0.624047 251.503 0
5057 1 -3.86577 2.12612 250.015 0
2812 1 -2.77745 1.19543 250.125 0
4008 1 -1.41349 1.58012 250.25 0
4011 1 1.03975 1.14264 250.126 0
6126 1 14.9256 2.23467 250.192 0
4899 1 17.1571 1.3574 250.875 0
5585 1 18.3987 1.54646 251.517 0
5058 1 -3.63624 3.49337 250.242 0
5062 1 -1.2211 3.0057 250.474 0
5060 1 0.170184 3.41701 250.562 0
4010 1 1.25084 2.51508 250.285 0
6130 1 13.9202 3.29933 250.131 0
6125 1 16.1458 2.45879 250.86 0
6128 1 16.3342 3.76024 251.561 0
5054 1 -4.72236 4.50456 250.102 0
5064 1 -2.29214 3.88419 250.555 0
5063 1 -2.0226 5.21908 250.803 0
5059 1 0.417682 4.7935 250.747 0
6129 1 14.1413 4.66831 250.574 0
6127 1 15.4305 4.95501 251.263 0
4006 1 -4.39902 5.87035 250.129 0
4007 1 -3.01308 6.25558 250.432 0
5061 1 -0.669637 5.61868 251.056 0
2577 1 1.53144 5.51684 250.26 0
2578 1 1.33574 6.84002 250.02 0
3746 1 13.1536 5.66992 250.341 0
3699 1 15.6322 6.4564 251.515 0
2584 1 -2.66076 7.62425 250.121 0
1528 1 -0.661254 7.00712 251.004 0
1527 1 -1.26218 8.02408 250.393 0
4855 1 12.4602 8.13443 250.248 0
4857 1 13.4617 7.0666 250.477 0
4856 1 14.7307 7.46229 250.929 0
5673 1 12.7845 9.53551 250.239 0
5670 1 14.1299 9.94076 250.629 0
4854 1 15.0643 8.86105 250.912 0
4865 1 16.3406 9.27804 251.395 0
2609 1 28.2475 9.61285 251.41 0
2610 1 29.6632 9.95992 251.505 0
5672 1 11.7678 10.551 250.092 0
5671 1 14.4906 11.3109 250.715 0
5682 1 16.793 10.6115 251.233 0
2616 1 24.7926 11.3224 251.547 0
1536 1 25.8243 10.2331 251.446 0
1535 1 27.2381 10.6329 251.358 0
5675 1 12.1508 11.9344 250.206 0
5674 1 13.4726 12.3415 250.523 0
5681 1 15.8449 11.6869 250.953 0
5684 1 16.2062 13.0994 250.97 0
5685 1 18.543 12.4099 251.532 0
2615 1 25.1718 12.699 251.378 0
2612 1 26.5356 13.06 251.441 0
2614 1 27.5839 12.0319 251.469 0
2613 1 29.0087 12.3885 251.499 0
2620 1 13.8453 13.7471 250.501 0
2563 1 12.887 14.7425 250.2 0
3771 1 15.2353 14.1129 250.648 0
5683 1 17.5629 13.4437 251.262 0
4863 1 20.3379 14.1539 251.381 0
4864 1 21.7644 14.448 251.313 0
4860 1 22.7497 13.4131 251.404 0
3767 1 24.18 13.7227 251.242 0
2611 1 26.9717 14.4299 251.442 0
1521 1 13.2242 16.154 250.161 0
3774 1 15.5795 15.5031 250.607 0
3773 1 16.9455 15.8562 250.967 0
3772 1 17.9641 14.816 251.094 0
2617 1 19.3525 15.1571 251.188 0
3770 1 22.1411 15.8457 251.125 0
3769 1 23.5477 16.1614 251.125 0
3768 1 24.5557 15.0829 251.166 0
2560 1 25.9646 15.4698 251.314 0
3762 1 28.3468 14.7647 251.549 0
2555 1 14.5735 16.4949 250.441 0
3704 1 14.9689 17.8673 250.506 0
2554 1 17.3438 17.2235 250.947 0
2559 1 18.7537 17.6314 251.028 0
2618 1 19.722 16.5407 251.073 0
2619 1 21.1187 16.8615 251.073 0
2561 1 23.9529 17.5731 251.277 0
4780 1 26.3293 16.8637 251.45 0
1522 1 12.6022 18.6266 250.095 0
3703 1 13.9918 18.9426 250.296 0
3701 1 16.3207 18.2769 250.751 0
2558 1 19.1554 18.967 250.986 0
2556 1 21.5522 18.2751 251.073 0
2557 1 20.5769 19.2951 250.979 0
1520 1 22.9496 18.6167 251.194 0
4779 1 25.3561 17.886 251.384 0
4778 1 25.7435 19.2703 251.508 0
3706 1 14.346 20.3578 250.347 0
3705 1 15.7405 20.7055 250.617 0
3702 1 16.7803 19.683 250.74 0
1519 1 18.1442 20.05 250.792 0
5900 1 20.9158 20.7377 250.991 0
6234 1 23.3477 20.0127 251.24 0
6235 1 24.7343 20.3159 251.487 0
2567 1 11.998 21.017 250.003 0
2564 1 13.3768 21.3977 250.178 0
3710 1 16.148 22.1034 250.554 0
3709 1 17.5495 22.4812 250.705 0
1518 1 18.5229 21.4363 250.812 0
5901 1 19.8906 21.7897 250.919 0
6233 1 22.3314 21.0709 251.057 0
6428 1 22.7172 22.4693 251.089 0
6353 1 25.1155 21.7015 251.476 0
2565 1 13.7733 22.8029 250.188 0
1523 1 12.7688 23.8762 250.088 0
3708 1 15.1736 23.1408 250.403 0
3707 1 17.9526 23.8687 250.589 0
5899 1 20.3435 23.1659 250.85 0
6427 1 21.7575 23.539 250.907 0
6429 1 24.1055 22.7231 251.324 0
2569 1 13.2116 25.3013 250.164 0
3711 1 14.6178 25.6242 250.364 0
3713 1 15.5898 24.5478 250.496 0
3714 1 16.9641 24.9263 250.458 0
5182 1 19.3784 24.2698 250.686 0
5183 1 19.7933 25.62 250.61 0
6424 1 22.195 24.8936 250.864 0
6425 1 23.5511 25.2378 251.092 0
6426 1 24.4625 24.1352 251.381 0
2572 1 10.7597 25.9096 250.033 0
2570 1 12.1367 26.2973 250.134 0
4869 1 15.0293 27.0162 250.286 0
3712 1 17.4051 26.3458 250.43 0
2568 1 18.8234 26.6936 250.534 0
5184 1 21.2053 25.9413 250.688 0
6415 1 24.0711 26.5688 251.063 0
6416 1 25.4907 26.9213 251.196 0
6117 1 28.4641 27.1661 251.345 0
2571 1 12.614 27.6543 250.14 0
1524 1 11.5794 28.7581 250.034 0
4872 1 14.017 28.0248 250.15 0
4868 1 16.4105 27.3526 250.358 0
4867 1 16.794 28.7506 250.376 0
5884 1 19.2588 28.1017 250.624 0
4149 1 21.7086 27.3584 250.71 0
5886 1 20.723 28.4275 250.753 0
4150 1 23.1368 27.6602 250.875 0
5180 1 26.0743 28.2337 250.908 0
6119 1 27.7209 28.2149 250.787 0
4871 1 14.3873 29.4424 250.141 0
4870 1 15.7791 29.7536 250.254 0
5882 1 18.213 29.1009 250.484 0
5887 1 21.0751 29.8139 250.72 0
4141 1 22.5414 30.1407 250.808 0
2870 1 23.5838 29.0881 250.848 0
5179 1 25.056 29.4282 250.837 0
6118 1 28.4767 29.3379 250.184 0
3715 1 16.2431 31.1665 250.163 0
5883 1 18.6309 30.5145 250.589 0
5173 1 17.624 31.5536 250.353 0
5885 1 20.0653 30.825 250.728 0
5176 1 22.9332 31.5808 250.877 0
5181 1 25.3973 30.8516 250.754 0
5895 1 26.7458 31.3644 250.363 0
5894 1 27.7494 30.4899 250.055 0
5825 1 -0.30869 33.2468 250.092 0
5174 1 18.0681 32.9007 250.292 0
5890 1 19.4782 33.1921 250.511 0
5888 1 20.4912 32.2117 250.695 0
5889 1 21.9092 32.6008 250.822 0
5175 1 24.3373 31.9214 250.881 0
5635 1 24.7081 33.3497 250.785 0
5896 1 27.0132 32.8012 250.382 0
5898 1 28.3494 33.1859 250.049 0
6196 1 -5.21875 34.5299 250.21 0
6194 1 -3.83286 34.8601 250.432 0
5095 1 -2.76316 33.8601 250.264 0
5820 1 -1.3641 34.2411 250.286 0
5824 1 1.07272 33.6731 250.151 0
3716 1 15.6706 33.5947 250.043 0
3718 1 17.0622 33.9593 250.194 0
5891 1 19.875 34.5895 250.523 0
5893 1 22.2782 34.0134 250.708 0
5634 1 23.6529 34.3696 250.843 0
5633 1 26.0463 33.7786 250.667 0
5582 1 22.5884 -2.29006 251.615 0
5581 1 23.947 -1.87957 252.018 0
2484 1 26.6965 -1.13841 252.327 0
3603 1 29.1641 -1.74015 252.361 0
5580 1 21.9029 0.120974 251.749 0
6091 1 23.2581 0.537494 251.978 0
6090 1 24.2602 -0.511143 252.093 0
6095 1 25.6697 -0.139239 252.208 0
1497 1 28.0974 -0.791419 252.329 0
1498 1 28.4414 0.625183 252.181 0
5587 1 20.845 1.09099 251.853 0
6092 1 23.593 1.92715 252.132 0
6093 1 25.0155 2.27257 252.046 0
6094 1 25.9756 1.25316 252.145 0
1496 1 27.4093 1.64528 252.081 0
6098 1 18.5953 2.76096 252.261 0
6099 1 17.5278 3.66933 252.407 0
6097 1 19.9171 3.07441 252.769 0
5584 1 21.1376 2.44937 252.325 0
5591 1 22.5669 2.93446 252.287 0
5588 1 25.3596 3.65622 251.993 0
1491 1 27.7201 2.97375 251.982 0
1488 1 29.1349 3.33187 251.781 0
6100 1 17.6339 4.82641 253.111 0
5590 1 23.0094 4.3536 252.446 0
5589 1 24.3732 4.69331 252.129 0
767 1 26.7415 3.99897 251.93 0
768 1 27.1612 5.40274 251.789 0
5036 1 29.5701 4.76562 251.586 0
4858 1 17.2932 6.07631 253.06 0
5678 1 22.5161 6.85267 252.771 0
5676 1 22.2296 5.48433 253.025 0
4771 1 24.7443 6.06451 252.052 0
1492 1 26.1357 6.4245 251.738 0
5039 1 28.5515 5.79744 251.668 0
3700 1 16.7366 7.03097 252.321 0
4866 1 17.1177 8.37844 252.161 0
5679 1 21.5582 7.88384 252.947 0
4772 1 23.7814 7.15031 252.256 0
1493 1 26.4893 7.83784 251.686 0
2608 1 27.8413 8.1997 251.585 0
5040 1 28.9061 7.18519 251.675 0
4904 1 18.3721 8.83543 252.702 0
4905 1 19.0658 10.0256 252.171 0
4906 1 21.6964 9.17773 252.308 0
3765 1 23.0913 9.57509 251.943 0
1495 1 24.1386 8.54162 251.966 0
1494 1 25.492 8.87294 251.676 0
5686 1 18.1722 11.0107 251.707 0
4903 1 20.5603 10.2414 252.092 0
3766 1 23.4049 10.9753 251.721 0
4859 1 19.9439 12.7491 251.591 0
4862 1 20.9712 11.6786 251.763 0
4861 1 22.4013 12.0006 251.617 0
3759 1 29.3735 13.7517 251.601 0
3763 1 28.7001 16.1539 251.729 0
4781 1 27.6832 17.2225 251.694 0
4777 1 28.1304 18.5935 251.876 0
3620 1 29.5071 18.9835 252.172 0
4776 1 27.1287 19.6754 251.682 0
6352 1 26.469 22.0466 251.774 0
3627 1 27.5089 21.0636 251.864 0
3629 1 28.8584 21.4285 252.294 0
6354 1 26.7325 23.4084 252.042 0
5185 1 28.0242 23.7565 252.519 0
3628 1 29.1207 22.8361 252.56 0
6414 1 25.8295 24.4593 251.708 0
5186 1 28.4428 25.0815 252.686 0
5177 1 29.7482 25.3967 252.779 0
6417 1 26.3283 25.8666 251.713 0
5187 1 27.7201 26.099 252.078 0
6096 1 20.2002 4.25761 253.387 0
5677 1 21.0383 5.12633 253.5 0
5680 1 20.3346 7.6444 253.464 0
4907 1 19.1306 8.06883 253.443 0
5137 1 11.4951 70.7558 246.847 0
4123 1 11.7633 71.9462 246.382 0
5930 1 7.91217 35.4676 248.422 0
6258 1 8.74386 36.3654 247.921 0
6257 1 10.1471 35.9712 248.101 0
5931 1 6.10404 37.0975 248.314 0
6255 1 8.67743 37.7527 247.42 0
6256 1 10.8823 37.2223 247.77 0
5208 1 12.1753 37.5791 248.108 0
5926 1 5.49169 39.3487 248.386 0
5932 1 6.39386 38.3417 247.922 0
5933 1 7.65026 38.7165 247.459 0
6254 1 10.0235 38.2419 247.284 0
5859 1 10.3632 39.6177 247.151 0
4166 1 12.5711 38.9802 248.015 0
5927 1 5.76602 40.7472 248.242 0
5928 1 6.99326 41.1626 247.594 0
5929 1 7.98941 40.1541 247.332 0
5857 1 9.35024 40.6434 247.207 0
5858 1 11.713 40.031 247.46 0
5168 1 7.28983 42.5868 247.619 0
5856 1 9.65512 42.0363 247.344 0
6208 1 11.0135 42.4577 247.412 0
6211 1 12.0474 41.4494 247.588 0
6210 1 13.371 41.8169 248.01 0
5167 1 6.27299 43.5016 248.048 0
5144 1 8.61825 43.0104 247.443 0
6209 1 11.373 43.8214 247.522 0
6213 1 13.7155 43.228 248.094 0
6212 1 12.7065 44.2042 247.76 0
4126 1 7.88451 45.3548 247.722 0
4128 1 6.56417 44.9019 248.026 0
5142 1 8.94567 44.4231 247.522 0
5143 1 10.3554 44.8194 247.432 0
5853 1 12.9983 45.6245 247.925 0
4127 1 5.55967 45.9663 248.36 0
5145 1 5.91428 47.3857 248.334 0
4133 1 8.19095 46.7874 247.832 0
5159 1 9.57368 47.2562 247.76 0
5158 1 10.6509 46.2457 247.618 0
5161 1 12.0148 46.621 247.769 0
5854 1 14.3477 46.0165 248.394 0
5147 1 7.17796 47.7534 248.107 0
5160 1 9.91909 48.7014 247.939 0
5873 1 12.3095 48.034 248.001 0
6221 1 13.695 48.448 248.179 0
5146 1 7.47997 49.2066 248.229 0
4132 1 8.86743 49.6565 248.086 0
5874 1 11.2708 49.0673 247.975 0
5872 1 11.6163 50.4705 248.114 0
6351 1 14.095 49.8145 248.286 0
5149 1 9.19373 51.0355 248.154 0
5157 1 10.58 51.4757 248.201 0
6350 1 13.0157 50.8172 248.152 0
5156 1 10.9673 52.8543 248.261 0
5867 1 12.3464 53.2546 248.417 0
6349 1 13.3739 52.2446 248.358 0
3680 1 22.8709 54.6075 248.43 0
3676 1 23.4453 55.7671 247.961 0
3675 1 24.6524 56.3746 248.099 0
2848 1 8.32878 69.0158 248.346 0
5139 1 9.66867 69.1903 247.863 0
5663 1 10.755 68.2492 248.126 0
5661 1 12.1219 68.6123 247.922 0
5658 1 13.2076 67.7518 248.326 0
5140 1 10.2927 70.2104 247.159 0
5138 1 12.5266 69.8564 247.41 0
3653 1 13.7985 70.4891 247.798 0
2853 1 7.59812 71.4717 248.303 0
4122 1 8.70908 71.9419 247.788 0
3652 1 13.9505 71.7962 247.651 0
6193 1 2.70335 35.5096 249.974 0
5879 1 5.20734 36.363 249.036 0
5206 1 12.7793 35.3455 248.994 0
4164 1 15.1548 36.0186 249.726 0
6192 1 2.93227 36.9474 249.905 0
5876 1 4.18006 37.3997 249.386 0
5207 1 13.0036 36.6328 248.754 0
4165 1 14.2993 37.0328 249.261 0
5169 1 4.35068 38.8689 249.125 0
5203 1 13.8567 39.367 248.6 0
5204 1 14.6929 38.3904 249.227 0
5925 1 15.9909 38.7629 249.727 0
2858 1 3.35339 39.7925 249.549 0
2859 1 3.58002 41.2017 249.334 0
5201 1 14.2224 40.8193 248.556 0
5202 1 15.5305 41.1924 249.118 0
5920 1 16.4242 40.1677 249.573 0
5922 1 17.7486 40.5556 249.903 0
5070 1 2.6101 42.2457 249.724 0
5165 1 4.79801 41.684 248.722 0
5141 1 15.894 42.5773 249.161 0
5172 1 18.153 41.9115 249.862 0
5066 1 2.831 43.6911 249.592 0
4014 1 4.00737 44.1253 248.991 0
5166 1 4.97578 43.1182 248.545 0
5852 1 14.963 43.5679 248.697 0
5170 1 17.2069 42.9601 249.529 0
6231 1 17.6052 44.3383 249.539 0
5069 1 1.84405 44.5913 249.959 0
4016 1 4.31358 45.5262 248.907 0
5855 1 15.2868 44.9815 248.789 0
6230 1 16.6289 45.3887 249.268 0
6232 1 18.9482 44.7275 249.764 0
5065 1 2.05671 45.9791 249.748 0
4015 1 3.31504 46.4723 249.274 0
6220 1 14.653 47.4221 248.477 0
6228 1 16.9998 46.753 249.209 0
6229 1 18.3191 47.1051 249.528 0
6227 1 19.3144 46.1027 249.859 0
4833 1 29.5509 46.1822 249.854 0
5790 1 1.23044 48.3586 249.893 0
5154 1 2.58836 48.8256 249.527 0
5152 1 3.62816 47.8707 249.149 0
5153 1 4.91661 48.3227 248.725 0
6222 1 16.0004 47.8319 248.892 0
5666 1 18.69 48.4757 249.477 0
5667 1 20.0411 48.9084 249.704 0
6239 1 27.5701 48.3251 249.917 0
4831 1 28.9322 48.7204 249.723 0
5155 1 2.85823 50.264 249.529 0
5865 1 5.1455 49.7471 248.812 0
5863 1 6.52138 50.1852 248.572 0
6411 1 15.4171 50.1654 248.683 0
6413 1 16.371 49.1727 248.937 0
6412 1 17.7119 49.5321 249.252 0
5665 1 20.4805 50.2486 249.564 0
3667 1 22.8148 49.616 249.843 0
2535 1 24.1907 49.9931 249.734 0
6238 1 26.5847 49.3689 249.95 0
3665 1 29.3552 50.0652 249.591 0
6184 1 0.452804 50.7363 249.978 0
4131 1 1.78002 51.2066 249.648 0
5864 1 4.17149 50.7086 249.197 0
5862 1 4.52834 52.109 249.162 0
5860 1 6.88068 51.5714 248.676 0
5151 1 8.18994 51.9759 248.513 0
6409 1 15.7394 51.5716 248.746 0
6408 1 17.1373 52.0097 248.99 0
6410 1 18.1009 50.9339 249.208 0
6120 1 19.5008 51.3083 249.351 0
4835 1 21.8091 50.6256 249.521 0
4836 1 22.1597 51.9446 249.199 0
3669 1 24.5734 51.3494 249.398 0
3670 1 25.9864 51.714 249.431 0
3664 1 26.9732 50.7546 249.69 0
3666 1 28.4272 51.1596 249.756 0
5072 1 1.01848 53.5596 249.888 0
4130 1 2.11626 52.6433 249.68 0
4129 1 3.46576 53.1119 249.432 0
5861 1 5.87717 52.5492 248.938 0
5150 1 8.55532 53.3671 248.563 0
6348 1 14.7481 52.6047 248.543 0
6123 1 17.4835 53.3834 249.07 0
6121 1 19.8063 52.6915 249.167 0
5669 1 21.1745 53.0823 249.078 0
3681 1 23.5367 52.3148 249.15 0
3682 1 23.8867 53.6102 248.773 0
3671 1 26.3219 53.0975 249.297 0
3663 1 27.7017 53.5579 249.526 0
3662 1 28.7434 52.5601 249.621 0
5073 1 1.30327 54.9795 249.847 0
4170 1 3.77055 54.5122 249.46 0
5211 1 6.23887 53.9478 248.959 0
5212 1 5.1702 54.9158 249.217 0
5210 1 7.57114 54.3946 248.794 0
5148 1 9.92163 53.8037 248.493 0
6215 1 10.3048 55.1749 248.693 0
5868 1 12.6943 54.6531 248.637 0
5869 1 14.0703 55.0618 248.771 0
5866 1 15.0711 53.9733 248.815 0
6122 1 16.4285 54.4276 249.014 0
6124 1 18.8522 53.7662 249.139 0
6333 1 19.1827 55.1942 249.151 0
5668 1 21.5553 54.4273 248.831 0
3668 1 25.2666 54.0334 248.841 0
3661 1 27.9996 54.9836 249.591 0
4171 1 2.72561 55.4904 249.671 0
5938 1 5.48513 56.365 249.341 0
5209 1 7.84837 55.7873 248.909 0
5941 1 6.85738 56.7568 249.2 0
6214 1 9.24133 56.1868 248.839 0
6216 1 11.6828 55.623 248.699 0
5871 1 14.4066 56.4423 248.8 0
6331 1 16.8093 55.8267 248.993 0
6334 1 18.1986 56.274 249.169 0
6332 1 20.5777 55.5239 249.011 0
2539 1 25.6306 55.4171 248.629 0
2538 1 26.8617 55.888 249.23 0
4169 1 3.0591 56.9192 249.743 0
4187 1 2.00482 57.8081 249.919 0
5939 1 4.44708 57.3182 249.589 0
5940 1 7.19103 58.156 249.28 0
6218 1 9.58223 57.6112 248.996 0
6219 1 10.9755 58.0032 249.034 0
6217 1 12.0034 57.0352 248.926 0
5870 1 13.3417 57.4254 248.896 0
6330 1 15.8045 56.8744 248.854 0
6329 1 16.1824 58.2743 249.041 0
6335 1 18.5927 57.6772 249.24 0
6336 1 20.0416 58.1129 249.373 0
6337 1 20.9605 56.9057 249.079 0
3679 1 22.2178 57.3069 249.162 0
3678 1 23.0203 58.189 249.517 0
3677 1 24.9954 57.574 248.522 0
2537 1 25.8589 58.2399 249.319 0
2536 1 26.9498 57.2945 249.589 0
5214 1 3.75678 59.6405 249.818 0
5942 1 4.79819 58.7106 249.632 0
5943 1 6.16444 59.0935 249.433 0
4173 1 8.51856 58.5849 249.138 0
4140 1 11.3158 59.4293 249.142 0
4139 1 12.6653 59.8069 249.187 0
4138 1 13.7274 58.8358 249.042 0
2857 1 15.1103 59.2753 249.085 0
6328 1 17.5835 58.6861 249.217 0
3673 1 20.4443 59.5601 249.618 0
3672 1 23.1288 59.4537 249.899 0
5213 1 4.04297 61.0596 249.688 0
5654 1 6.46031 60.5172 249.336 0
5652 1 7.82935 60.966 249.258 0
4172 1 8.8752 59.996 249.262 0
4135 1 10.2556 60.3797 249.263 0
4134 1 12.9767 61.2035 249.225 0
1506 1 15.4304 60.6677 249.143 0
2513 1 16.8198 61.126 249.239 0
2514 1 17.9602 60.1201 249.328 0
2515 1 19.3096 60.5862 249.615 0
3674 1 21.8541 60.1898 249.97 0
4124 1 3.05532 62.0746 249.895 0
5655 1 5.43231 61.5185 249.443 0
5656 1 5.7544 62.9132 249.351 0
5653 1 8.10967 62.3408 249.078 0
4815 1 9.47682 62.7507 249.059 0
4136 1 10.5303 61.8251 249.132 0
4137 1 11.938 62.2152 249.121 0
2518 1 14.3801 61.6495 249.216 0
4823 1 17.0966 62.5204 249.298 0
4824 1 18.427 63.0053 249.665 0
2516 1 19.5317 61.9881 249.931 0
4191 1 2.33332 64.4961 249.974 0
4125 1 3.39585 63.4817 249.801 0
2856 1 4.7047 63.893 249.516 0
5657 1 7.10959 63.3536 249.115 0
4816 1 9.82935 64.127 248.935 0
4820 1 12.2291 63.6357 249.031 0
4817 1 11.1868 64.5726 248.88 0
4819 1 13.5863 64.0783 249.057 0
2519 1 14.649 63.128 249.194 0
4822 1 16.0417 63.5163 249.262 0
4821 1 18.6718 64.4042 249.821 0
4190 1 2.64531 65.9308 249.791 0
1715 1 5.02667 65.3086 249.384 0
3655 1 6.38448 65.7655 249.128 0
4813 1 7.42319 64.7575 249.06 0
4814 1 8.79031 65.1629 248.874 0
5660 1 11.541 66.0039 248.682 0
4818 1 13.9326 65.4685 248.863 0
4825 1 15.2802 65.9064 248.992 0
4826 1 16.3107 64.9398 249.254 0
4827 1 17.659 65.4356 249.565 0
4192 1 1.65042 66.9128 249.964 0
2855 1 4.00018 66.3739 249.528 0
3657 1 6.70156 67.2346 248.983 0
3656 1 8.03934 67.5529 248.624 0
3654 1 9.09442 66.5 248.605 0
5662 1 10.4601 66.9067 248.481 0
5659 1 12.9343 66.4119 248.604 0
4829 1 15.5424 67.3504 248.913 0
4828 1 17.9045 66.8781 249.705 0
4198 1 1.99557 68.3317 249.84 0
4199 1 3.36376 68.7968 249.681 0
2854 1 4.39679 67.7804 249.436 0
2849 1 5.72178 68.2145 249.226 0
2517 1 14.5147 68.2713 248.513 0
4830 1 16.8177 67.871 249.43 0
1722 1 -6.38835 70.8111 249.947 0
5234 1 1.24856 70.7336 249.928 0
5236 1 0.946448 69.3409 249.913 0
5231 1 3.65628 70.2029 249.587 0
5230 1 5.01211 70.679 249.291 0
2851 1 6.00419 69.6459 248.987 0
2850 1 7.3316 70.0368 248.564 0
2852 1 14.7847 69.7177 248.516 0
4120 1 17.0302 69.3815 249.515 0
4119 1 15.9387 70.3406 249.167 0
5164 1 -6.09455 72.1699 249.712 0
5229 1 2.6174 71.1642 249.713 0
5232 1 5.31778 72.0802 249.167 0
6207 1 15.941 71.8344 249.375 0
4735 1 -6.2987 35.5796 250.341 0
6195 1 -3.4897 36.252 250.735 0
5821 1 -1.09102 35.6343 250.455 0
6188 1 0.282182 36.0304 250.357 0
6191 1 1.33469 35.0446 250.161 0
4163 1 16.559 36.3447 250.046 0
2867 1 18.8626 35.6658 250.378 0
2866 1 17.4853 35.3082 250.213 0
2868 1 21.5987 36.437 250.709 0
5892 1 21.2517 35.0066 250.618 0
5632 1 24.0287 35.7767 250.902 0
5630 1 25.3964 36.1774 250.85 0
5631 1 26.4073 35.1448 250.736 0
4794 1 27.8036 35.5467 250.473 0
5558 1 -7.15854 37.9087 250.937 0
6198 1 -6.00548 36.9259 250.75 0
6197 1 -4.57945 37.2301 250.971 0
5827 1 -2.09727 36.6163 250.782 0
5826 1 -1.74227 38.0192 251.098 0
6190 1 0.587025 37.4551 250.552 0
6189 1 1.95317 37.9218 250.251 0
5924 1 16.9275 37.7631 250.051 0
5923 1 18.3246 38.1061 250.254 0
2865 1 19.2645 37.0811 250.498 0
2869 1 20.6336 37.481 250.652 0
4792 1 23.0184 36.8153 250.849 0
4791 1 25.7834 37.5756 250.761 0
5628 1 28.1583 36.9281 250.555 0
5629 1 27.1641 37.9674 250.716 0
5627 1 29.5249 37.2684 250.311 0
5557 1 -6.43546 38.9653 251.46 0
5829 1 -4.15601 38.5134 251.402 0
5828 1 -2.76902 38.8939 251.413 0
4026 1 -0.392135 38.4303 250.877 0
1716 1 2.21041 39.3095 250.16 0
5921 1 18.6899 39.5387 250.256 0
4146 1 21.0328 38.8633 250.67 0
4789 1 23.3784 38.1814 250.815 0
4143 1 22.3879 39.2435 250.805 0
4790 1 24.7879 38.5948 250.814 0
5624 1 27.6055 39.3202 250.714 0
5625 1 29.0097 39.6681 250.6 0
4013 1 -0.107878 39.8465 250.81 0
5076 1 -1.12737 40.7941 251.164 0
4012 1 1.18805 40.2981 250.479 0
4145 1 20.0834 39.8741 250.528 0
4148 1 22.8117 40.5994 250.761 0
4142 1 24.1872 40.9764 250.863 0
4788 1 25.191 39.9827 250.834 0
4787 1 26.6017 40.3656 250.77 0
5595 1 29.3842 41.0528 250.498 0
5079 1 -0.858354 42.2239 251.181 0
5067 1 0.384982 42.7144 250.689 0
5071 1 1.40499 41.776 250.358 0
5171 1 19.5364 42.2964 250.124 0
4144 1 20.4983 41.2369 250.391 0
4147 1 21.8618 41.6434 250.611 0
5192 1 24.5795 42.3733 250.75 0
5193 1 25.9601 42.7632 250.68 0
4156 1 26.9802 41.7838 250.654 0
4157 1 28.3942 42.1111 250.463 0
5081 1 -1.89591 43.1683 251.449 0
5068 1 0.59915 44.1138 250.477 0
5880 1 19.8968 43.7011 250.083 0
6225 1 21.2888 44.0689 250.361 0
6224 1 22.2619 43.0021 250.586 0
6223 1 23.642 43.459 250.639 0
5904 1 26.388 44.1954 250.599 0
4155 1 28.7717 43.4953 250.382 0
5799 1 -1.72505 44.5702 251.227 0
5801 1 -2.76105 45.5444 251.386 0
5798 1 -0.418331 45.0595 250.771 0
6226 1 21.6414 45.4323 250.292 0
6359 1 22.997 45.8486 250.442 0
6360 1 24.0483 44.8217 250.612 0
6358 1 25.4404 45.2246 250.522 0
5903 1 27.7781 44.5177 250.37 0
4209 1 -7.51287 46.0862 251.139 0
5804 1 -5.02191 47.3343 251.452 0
5802 1 -2.59905 46.9357 251.12 0
5800 1 -0.268847 46.4775 250.569 0
5791 1 1.01204 46.9438 250.062 0
5881 1 20.6571 46.4663 250.019 0
6357 1 23.3813 47.2569 250.305 0
6356 1 25.8489 46.6133 250.353 0
5902 1 28.1819 45.907 250.072 0
6236 1 27.2091 46.9787 250.074 0
4210 1 -7.38426 47.5123 251.005 0
6187 1 -6.16532 48.199 251.158 0
5805 1 -3.67682 47.8881 251.21 0