ITEM: TIMESTEP
5100000
ITEM: NUMBER OF ATOMS
6459
ITEM: BOX BOUNDS pp pp pp
-7.7345425670859935e+00 2.1773454256708615e+02
-2.3739093354904872e+00 7.2373909335491717e+01
0.0000000000000000e+00 5.0000000000000000e+02
ITEM: ATOMS id type x y z f_5
5700 1 11.9951 -1.51853 246.372 292.47
4741 1 -6.94707 16.251 246.73 271.855
1687 1 -6.08025 15.2578 247.196 317.679
4740 1 -6.55088 17.6279 246.694 301.439
4743 1 -7.50091 18.6765 246.597 287.649
1688 1 -5.18427 17.963 246.994 304.614
2431 1 -7.15917 19.9871 246.891 288.356
3755 1 6.74541 -2.08343 248.683 281.173
4900 1 9.60203 -1.82189 247.614 293.196
5701 1 14.6488 -1.89956 248.108 302.279
3752 1 7.02647 -0.545505 248.534 284.579
5702 1 8.30145 -0.115746 248.143 296.067
5703 1 9.66237 -0.489451 247.699 315.689
5705 1 10.8498 0.225734 247.682 319.423
5698 1 12.0336 -0.433594 247.092 267.721
5699 1 13.0956 0.141606 247.722 282.412
6133 1 11.0849 1.48293 248.347 298.294
1484 1 -7.64646 11.3775 248.305 334.982
296 1 -6.20645 11.6457 248.31 302.532
295 1 -5.66143 12.921 247.928 291.266
1693 1 -3.33323 12.1883 248.434 314.931
1681 1 0.943458 13.0107 248.582 305.246
4756 1 -6.55989 13.8969 247.476 297.069
1694 1 -4.25428 13.1585 247.957 262.237
1692 1 -3.7519 14.4924 247.673 283.027
1690 1 -1.43628 13.773 248.123 265.778
1683 1 -0.0286033 14.0998 248.3 292.507
1686 1 -4.70187 15.5238 247.371 272.966
1689 1 -2.36547 14.8009 247.837 330.48
2591 1 -1.92496 16.1685 247.73 316.39
1684 1 0.385303 15.4915 248.3 259.436
1685 1 -4.25409 16.8846 247.283 306.236
2594 1 -2.89961 17.2053 247.495 295.664
2592 1 -0.56512 16.5406 248.012 294.614
840 1 -4.83081 19.3086 247.255 311.386
2595 1 -2.44296 18.5762 247.571 286.243
2596 1 -1.10291 18.9621 247.969 292.456
2593 1 -0.166457 17.907 248.111 271.434
841 1 -5.77553 20.3079 247.191 325.775
1674 1 -3.47518 19.657 247.513 279.876
1673 1 -0.823037 20.3289 248.272 309.622
1675 1 -5.53534 21.7213 247.578 300.839
1680 1 -3.161 20.9932 247.849 307.852
1678 1 -4.19957 22.0316 247.908 308.642
1679 1 -1.81114 21.3936 248.213 304.262
2430 1 -6.60647 22.6947 247.703 338.504
1457 1 -6.31916 24.0593 247.992 278.401
1677 1 -3.8673 23.3841 248.251 328.08
1456 1 -7.35473 25.064 248.125 322.422
1676 1 -4.92427 24.4209 248.284 275.038
1453 1 -7.06364 26.3634 248.489 277.697
2403 1 -7.12304 -1.4677 248.914 240.926
2813 1 -4.70442 -1.96532 249.16 302.984
2588 1 -1.94454 -1.11345 249.385 302.461
2589 1 0.495074 -1.60445 249.505 285.42
1533 1 1.86393 -1.11733 249.509 324.828
1532 1 2.94351 -2.05056 249.372 288.533
3756 1 4.31442 -1.59755 249.101 307.169
4901 1 15.4777 -1.50176 249.135 285.386
1442 1 -6.78782 -0.130548 248.924 294.845
2815 1 -5.43528 0.396694 249.163 279.618
2814 1 -4.37453 -0.590308 249.157 269.827
2587 1 -3.01743 -0.186286 249.414 295.599
2590 1 -0.610559 -0.644992 249.506 300.541
1531 1 2.19495 0.351989 249.5 303.377
3754 1 4.5933 -0.116697 249.014 298.466
3753 1 5.92918 0.469269 248.815 256.922
4902 1 15.7387 -0.161027 249.601 324.64
4161 1 14.9863 34.6999 249.652 332.496
3596 1 -7.32644 2.05044 248.929 248.022
5056 1 -5.19283 1.78332 249.425 274.252
5057 1 -3.8733 2.19324 249.75 308.422
2812 1 -2.77967 1.20911 249.712 274.336
4009 1 -0.33729 0.718199 249.717 301.305
4008 1 -1.40588 1.63398 249.87 274.375
4011 1 1.01756 1.19591 249.605 346.945
2600 1 3.55346 0.807121 249.248 296.134
2606 1 3.72214 2.25735 249.253 300.788
2599 1 6.19895 2.04183 248.859 329.145
5704 1 8.67244 2.22436 248.419 316.32
6136 1 12.3503 1.84506 248.875 294.458
5696 1 13.5302 0.94833 248.719 259.089
5697 1 14.7388 0.956621 249.445 319.19
3597 1 -6.26306 2.83759 249.322 272.251
4872 1 14.0869 28.1448 249.91 300.393
4793 1 28.857 34.7849 249.79 309.995
4010 1 1.21306 2.61936 249.753 272.146
2605 1 2.54718 2.8294 249.568 316.017
2604 1 4.97648 3.02473 249.105 314.559
5693 1 7.44782 2.76189 248.741 281.929
6132 1 9.99832 2.43201 248.58 286.757
6131 1 10.2409 3.74948 249.045 246.678
6135 1 12.588 3.14303 249.504 341.022
5822 1 1.92291 31.4049 249.786 288.79
4031 1 3.00769 30.439 249.686 269.917
3595 1 -7.13729 5.22027 249.576 311.073
5055 1 -6.08082 4.23544 249.649 326.344
5054 1 -4.66718 4.56371 249.87 326.505
2603 1 2.88507 5.27175 250.009 303.228
2601 1 5.20373 4.53194 249.385 294.758
5694 1 7.62973 4.21293 249.006 297.609
3744 1 6.52899 5.13223 249.243 326.985
5695 1 9.02348 4.63582 249.139 342.094
6134 1 11.5568 4.12287 249.494 302.858
1482 1 -6.73425 6.62968 249.455 289.751
2585 1 -5.31097 6.99249 249.665 293.027
1521 1 13.3682 16.2887 249.976 345.778
5675 1 12.1384 12.0933 250.01 257.016
4162 1 13.5095 34.3588 249.418 295.948
2602 1 4.13602 5.6503 249.603 291.982
3742 1 6.84429 6.55593 249.395 247.7
4895 1 9.36913 6.02107 249.478 282.037
4896 1 10.7455 6.44021 249.747 286.565
4897 1 11.8246 5.48986 249.859 293.469
2469 1 -7.67256 7.70889 249.173 304.208
2586 1 -4.79965 8.27931 249.389 295.257
4879 1 1.84047 8.16491 249.495 279.48
4880 1 3.34702 8.30301 249.319 313.569
3737 1 4.40349 7.22229 249.424 268.019
3738 1 5.81934 7.65142 249.447 296.984
3743 1 8.29262 6.97615 249.477 275.365
3750 1 8.62052 8.42017 249.561 285.077
5205 1 10.6939 35.0098 248.622 306.573
2472 1 -7.15715 8.99539 248.888 292.742
1695 1 -5.70857 9.25719 248.906 278.33
2583 1 -3.40121 8.56364 249.456 320.297
843 1 -2.88358 9.90291 249.213 280.234
2579 1 -0.472903 9.16379 249.542 300.672
4882 1 0.962733 9.29213 249.294 281.767
4884 1 3.80118 9.77164 249.072 301.766
3740 1 6.22015 9.07059 249.349 295.587
3749 1 7.58724 9.47077 249.439 274.351
3748 1 10.0377 8.87783 249.692 285.488
842 1 -5.27008 10.6141 248.621 265.854
844 1 -3.83559 10.8783 248.792 294.151
2580 1 -1.44936 10.1673 249.199 279.794
2581 1 -0.975529 11.3935 248.761 306.579
4881 1 1.45263 10.6326 248.991 281.916
2582 1 0.447578 11.6384 248.705 280.283
4883 1 2.87462 10.8948 248.946 300.221
3739 1 5.24642 10.1549 249.184 263.508
3741 1 5.68751 11.5553 249.162 259.832
5689 1 7.96196 10.8921 249.425 349.616
5692 1 9.32324 11.3076 249.565 300.338
3751 1 10.3686 10.2795 249.678 300.883
1691 1 -1.87102 12.4351 248.445 270.301
4886 1 3.30019 12.2588 248.858 312.886
4889 1 4.68971 12.5906 248.954 292.238
5688 1 7.03741 11.9729 249.3 293.473
5691 1 9.77518 12.7148 249.693 294.942
3747 1 11.1867 13.1298 249.923 312.501
4887 1 2.33729 13.3081 248.762 276.615
4885 1 2.71059 14.7368 248.758 321.393
4890 1 5.06193 14.0266 249.061 275.033
4894 1 6.4425 14.4277 249.21 301.127
5687 1 7.42042 13.3835 249.432 270.227
5690 1 8.81495 13.7928 249.623 258.405
2562 1 11.5694 14.5563 249.862 323.593
1682 1 1.7568 15.8071 248.532 293.814
4888 1 4.07344 15.0869 248.94 273.307
4893 1 6.85676 15.8236 249.168 283.152
4891 1 8.24018 16.2264 249.291 289.941
4892 1 9.19534 15.1768 249.58 293.257
777 1 10.5729 15.5803 249.801 277.49
2563 1 12.9711 14.9046 249.871 314.53
1529 1 2.13041 17.1764 248.605 284.722
779 1 3.50158 17.574 248.882 311.378
2597 1 4.49296 16.4781 248.944 311.793
2598 1 5.87009 16.8774 249.053 376.548
3733 1 8.62895 17.6444 249.362 295.902
778 1 11.0042 16.9886 249.765 327.052
776 1 12.3738 17.3124 249.904 270.337
1530 1 1.19716 18.2766 248.415 255.785
1525 1 3.89929 18.9501 249.048 350.217
2574 1 6.25718 18.2856 249.12 324.95
2575 1 5.26211 19.3353 249.204 298.901
3736 1 7.64568 18.6545 249.27 262.637
3735 1 10.4257 19.4238 249.744 263.401
3734 1 10.0138 18.0379 249.634 266.23
1522 1 12.7983 18.7448 250.036 279.496
3745 1 11.089 7.84953 249.876 282.108
839 1 0.509928 20.6668 248.663 286.455
838 1 1.51111 19.6562 248.641 287.669
1526 1 2.87996 19.9852 248.944 292.984
2576 1 5.56832 20.7567 249.488 323.109
4878 1 7.99876 20.0398 249.525 295.389
4877 1 9.35945 20.4233 249.685 297.341
2566 1 11.7803 19.7657 249.871 249.84
5672 1 11.7552 10.6626 249.912 259.6
5897 1 29.2819 32.3819 249.413 246.416
2818 1 0.882477 22.0739 248.869 314.67
5816 1 2.25797 22.4193 249.142 263.661
5815 1 3.26263 21.3987 249.217 264.661
5814 1 4.58262 21.8115 249.526 299.19
4875 1 7.41027 22.4994 249.677 296.089
4873 1 6.99923 21.1038 249.625 224.976
4874 1 9.77636 21.828 249.762 346.134
2567 1 12.1386 21.14 250.003 284.52
3726 1 11.1383 22.1325 249.883 291.545
3711 1 14.7215 25.6579 249.896 282.198
3720 1 13.9384 31.9761 249.676 278.808
4020 1 -1.49233 22.7765 248.491 269.105
4019 1 -2.48119 23.7972 248.466 304.737
4021 1 -0.114729 23.1282 248.86 270.22
5818 1 2.56716 23.7964 249.429 295.422
4022 1 6.37102 23.5474 249.694 293.789
5817 1 4.9698 23.1792 249.653 309.779
4876 1 8.79815 22.9145 249.711 236.164
3725 1 11.5029 23.5297 249.828 268.007
1523 1 12.9429 23.9008 249.861 273.017
2565 1 13.9683 22.8993 249.949 243.75
3721 1 12.9354 33.0475 249.533 281.001
6344 1 -2.15476 25.1347 248.762 307.526
6342 1 -0.79098 25.5501 249.058 308.957
4018 1 0.223893 24.531 249.111 297.259
5084 1 1.62363 24.8796 249.335 281.239
5819 1 3.95673 24.1971 249.621 311.893
5811 1 4.33093 25.6016 249.72 290.043
4023 1 6.68889 24.9798 249.78 275.338
2573 1 8.10979 25.3491 249.756 296.632
3728 1 9.13987 24.2864 249.72 251.159
3727 1 10.5393 24.6324 249.716 276.344
2569 1 13.3317 25.2882 249.834 309.825
2861 1 10.4063 33.7773 249.127 285.505
2817 1 -5.676 26.7474 248.747 258.384
1672 1 -4.57979 25.7856 248.61 288.446
6346 1 -3.21857 26.1578 248.79 294.5
6343 1 -0.505416 26.9183 249.393 319.765
6200 1 0.905843 27.2517 249.518 276.928
5083 1 1.93442 26.2507 249.533 285.325
5809 1 3.30857 26.6291 249.663 331.728
5812 1 5.70811 26.0288 249.749 276.551
3730 1 8.44384 26.7445 249.664 293.461
3732 1 9.88574 27.078 249.639 282.37
2572 1 10.9266 26.0403 249.721 258.596
2570 1 12.3084 26.3645 249.809 328.489
2819 1 7.80962 34.4341 248.977 263.769
5092 1 -5.36349 28.0897 249.075 302.621
5096 1 -3.99509 28.5327 249.221 276.485
6347 1 -2.96128 27.5479 249.136 262.621
6345 1 -1.56476 27.9457 249.381 282.762
6201 1 1.23167 28.6513 249.539 284.701
5808 1 3.66351 28.0511 249.745 287.569
5810 1 5.07725 28.4503 249.68 273.92
5813 1 6.1315 27.4427 249.733 284.289
4025 1 7.49386 27.8138 249.714 319.62
3731 1 10.2678 28.4787 249.656 251.513
2571 1 12.6754 27.7491 249.791 331.605
2411 1 -6.4056 29.1251 249.24 300.388
5097 1 -3.6765 29.9155 249.563 275.174
5831 1 -2.26982 30.244 249.732 313.404
6202 1 -1.21177 29.3072 249.603 281.849
6199 1 0.171223 29.638 249.682 322.689
4030 1 2.63197 29.0152 249.655 289.102
5087 1 5.41817 29.8285 249.682 310.47
5086 1 6.84374 30.2038 249.632 324.034
4024 1 7.84916 29.1991 249.664 308.891
3729 1 9.26213 29.5399 249.591 301.063
3722 1 12.1162 30.267 249.662 314.861
1524 1 11.6764 28.8028 249.791 287.882
2860 1 6.39058 34.0517 249.264 255.403
3541 1 -7.14064 31.4682 249.541 270.394
5093 1 -6.08577 30.4985 249.468 284.774
5094 1 -4.71831 30.9071 249.709 266.141
5877 1 3.95199 34.6525 249.958 278.903
5089 1 4.4018 30.847 249.648 324.788
5085 1 7.19609 31.6708 249.605 322.174
2862 1 9.64405 30.9827 249.599 279.567
3723 1 11.0615 31.3881 249.654 314.687
3719 1 13.542 30.5822 249.709 286.293
5894 1 27.8147 30.6654 249.987 313.334
3546 1 -6.89311 32.8613 249.793 278.803
3724 1 11.5056 32.755 249.46 309.626
5898 1 28.4544 33.3844 249.756 296.939
5090 1 4.73283 32.2354 249.718 343.109
5091 1 3.68533 33.2068 249.926 250.79
5088 1 6.12823 32.6667 249.564 280.114
2864 1 8.9153 33.4202 249.207 274.131
2863 1 8.58909 32.0207 249.475 311.631
5833 1 0.51911 31.0275 249.803 300.676
2620 1 13.9757 13.8245 249.986 291.317
2584 1 -2.49217 7.59728 249.933 266.411
4028 1 -4.45772 32.2646 249.899 253.201
3713 1 15.7396 24.6198 249.918 263.962
4871 1 14.5211 29.503 249.896 261.449
5830 1 -1.95472 31.6519 249.881 265.816
5823 1 2.24686 32.8297 249.957 326.804
2578 1 1.39329 6.95045 249.825 314.991
5832 1 -0.564376 32.0248 249.891 316.21
3717 1 15.3839 32.2959 249.864 257.665
3716 1 15.8738 33.6591 249.884 300.657
4770 1 20.3139 -1.53164 250.887 325.55
5583 1 21.6536 -1.13096 251.34 302.744
5582 1 22.7011 -2.10477 251.396 305.026
5581 1 24.0765 -1.65923 251.57 285.44
4768 1 18.0749 -0.513459 250.345 296.052
4769 1 19.332 -0.516062 250.757 310.188
5580 1 21.9806 0.322501 251.592 379.729
6091 1 23.3705 0.702243 251.706 277.603
6090 1 24.4477 -0.298314 251.633 298.408
4899 1 17.1957 1.52865 250.854 263.621
5585 1 18.4631 1.72607 251.451 279.822
5586 1 19.6061 0.7917 251.35 265.665
5587 1 20.9222 1.25081 251.713 275.241
6092 1 23.7053 2.11079 251.831 292.891
6094 1 26.1207 1.46953 251.588 307.589
1496 1 27.547 1.86699 251.633 299.912
5060 1 0.234548 3.46036 250.22 291.787
6125 1 16.2034 2.57871 250.755 273.819
6093 1 25.1272 2.51187 251.597 296.779
1491 1 27.9547 3.26716 251.415 277.583
1488 1 29.3655 3.55433 251.249 275.907
5064 1 -2.29579 3.88603 250.439 275.197
5063 1 -2.00965 5.24741 250.696 272.788
5059 1 0.451172 4.85271 250.527 264.423
6129 1 14.1761 4.80018 250.515 282.881
6127 1 15.5226 5.13851 251.122 281.171
6128 1 16.4093 3.9074 251.362 276.281
767 1 26.8713 4.26395 251.359 262.714
5036 1 29.6997 4.95866 251.004 325.032
4007 1 -2.9437 6.27951 250.313 335.991
5061 1 -0.626473 5.69554 250.86 287.999
3746 1 13.164 5.82689 250.283 344.958
3699 1 15.7527 6.64474 251.398 259.149
1492 1 26.2579 6.65268 251.271 263.84
768 1 27.2424 5.65459 251.175 274.931
5039 1 28.6502 5.97734 251.057 268.539
3708 1 15.3723 23.22 249.984 254.29
1528 1 -0.557391 6.98409 250.741 311.419
1527 1 -1.11132 8.03383 250.125 282.715
4855 1 12.4833 8.2802 250.163 282.755
4857 1 13.4819 7.26078 250.465 259.443
4856 1 14.796 7.67626 250.818 282.292
1493 1 26.6471 8.02422 251.067 278.314
2608 1 28.0192 8.34777 250.772 338.357
5040 1 29.049 7.35526 250.798 283.21
5673 1 12.8369 9.64446 250.153 320.024
5670 1 14.2037 10.0552 250.406 304.683
4854 1 15.1497 9.04603 250.849 267.42
4865 1 16.428 9.48591 251.323 285.585
3765 1 23.2283 9.77446 251.55 276.665
1495 1 24.2632 8.68227 251.558 283.122
1494 1 25.6409 9.02102 251.203 322.315
2609 1 28.3828 9.72079 250.557 357.382
6118 1 28.5354 29.5047 250.224 274.832
5671 1 14.5914 11.4051 250.325 264.345
5682 1 16.9343 10.8027 251.018 284.401
5686 1 18.3122 11.2001 251.23 293.969
4903 1 20.7751 10.4234 251.713 288.203
3766 1 23.6244 11.15 251.185 289.317
2616 1 25.0138 11.4577 250.993 256.315
1536 1 25.9894 10.4222 250.947 304.942
1535 1 27.38 10.7553 250.679 302.656
2610 1 29.7544 10.0774 250.387 300.087
5187 1 27.861 26.1423 251.812 306.859
5674 1 13.5856 12.4255 250.053 317.01
5681 1 15.9724 11.8311 250.531 264.787
5684 1 16.3545 13.1888 250.378 282.162
5685 1 18.7431 12.5252 250.83 323.073
4859 1 20.1649 12.7793 250.782 267.81
4862 1 21.1636 11.7746 251.182 251.182
4861 1 22.6089 12.135 251.003 295.908
2615 1 25.415 12.8363 250.765 283.99
2614 1 27.7763 12.1842 250.577 318.64
2612 1 26.7724 13.162 250.641 306.176
2613 1 29.1882 12.5182 250.5 334.61
3710 1 16.3982 22.263 250.248 255.68
3771 1 15.3773 14.2139 250.057 331.823
5683 1 17.7863 13.5825 250.487 304.176
4863 1 20.5273 14.1709 250.553 293.872
4864 1 21.936 14.5346 250.651 281.533
4860 1 22.9844 13.5118 250.798 293.341
3767 1 24.3672 13.8577 250.757 282.016
2611 1 27.1904 14.5422 250.74 326.31
3759 1 29.618 13.8862 250.574 260.014
5186 1 28.6139 25.1004 252.46 302.998
3774 1 15.7654 15.6021 250.103 290.095
3773 1 17.1819 15.9489 250.119 313.966
3772 1 18.17 14.9407 250.274 261.987
2617 1 19.6106 15.2179 250.305 307.729
3770 1 22.3522 15.931 250.582 276.376
3768 1 24.7335 15.2275 250.687 287.216
3769 1 23.7681 16.3008 250.698 312.68
2560 1 26.1757 15.6382 250.775 293.707
3762 1 28.632 14.9265 250.77 327.573
3763 1 28.9846 16.2863 250.843 326.101
2555 1 14.75 16.664 250.15 314.595
2554 1 17.5978 17.3706 250.082 290.449
2559 1 19.0284 17.6895 250.159 296.592
2618 1 19.997 16.6241 250.207 287.065
2619 1 21.4029 16.9457 250.405 304.984
2561 1 24.1386 17.694 250.716 329.521
4780 1 26.5656 17.0292 250.841 318.26
4781 1 27.9773 17.3419 250.905 330.858
3704 1 15.1561 18.0189 250.114 296.404
3701 1 16.5845 18.4147 250.15 273.829
2558 1 19.3667 19.0801 250.254 312.866
2556 1 21.7295 18.3785 250.516 273.936
2557 1 20.7446 19.3937 250.54 326.26
1520 1 23.1498 18.7336 250.732 287.589
4779 1 25.515 18.0666 250.852 276.931
4778 1 25.9163 19.3922 251.134 316.007
4777 1 28.3202 18.7338 251.091 304.673
3620 1 29.7283 19.0542 251.418 376.205
3702 1 16.9577 19.8214 250.236 309.67
1519 1 18.3789 20.1219 250.315 313.795
5900 1 21.138 20.8343 250.701 271.139
6234 1 23.4744 20.103 250.977 284.735
6235 1 24.8728 20.4221 251.168 305.38
4776 1 27.2933 19.7049 251.261 344.39
1518 1 18.7376 21.5194 250.44 315.174
3709 1 17.8086 22.5875 250.351 318.383
5901 1 20.1647 21.8242 250.525 290.802
6233 1 22.4767 21.1506 250.904 268.118
6428 1 22.8896 22.5333 250.88 288.975
6353 1 25.2298 21.7735 251.357 300.175
6352 1 26.5887 22.1298 251.569 291.671
3627 1 27.6388 21.0904 251.573 296.743
3707 1 18.1961 23.9453 250.307 279.24
5899 1 20.5268 23.2478 250.547 348.804
6427 1 21.9405 23.6191 250.671 270.333
6429 1 24.2477 22.8257 251.191 293.708
6354 1 26.9702 23.4633 251.864 260.994
3714 1 17.1816 24.9848 250.176 290.711
5182 1 19.5896 24.3139 250.424 275.184
6424 1 22.3615 24.9964 250.777 295.621
6425 1 23.7421 25.3287 251.073 250.827
6426 1 24.6468 24.2306 251.334 299.77
6414 1 26.0347 24.5355 251.575 344.296
2577 1 1.5679 5.63556 250.174 227.97
3712 1 17.5471 26.3929 250.237 317.716
5183 1 20.0208 25.6985 250.426 298.758
2568 1 19.0175 26.762 250.367 248.767
5184 1 21.4186 26.0448 250.585 344.45
6415 1 24.2785 26.7501 251.028 289.219
6417 1 26.537 25.936 251.459 280.51
6416 1 25.6586 27.041 251.148 266.815
4898 1 16.9709 0.232137 250.209 305.116
4868 1 16.5492 27.4733 250.178 291.331
5884 1 19.4206 28.1232 250.47 263.893
4149 1 21.8659 27.4102 250.705 285.921
5886 1 20.8335 28.4245 250.633 311.256
4150 1 23.2647 27.8113 250.881 315.806
5180 1 26.1861 28.3605 250.976 282.624
6119 1 27.7156 28.4262 250.861 309.753
6117 1 28.5597 27.2533 251.333 265.401
3705 1 15.957 20.842 250.306 321.312
4870 1 15.9245 29.856 250.1 277.472
4867 1 16.9775 28.8892 250.237 275.178
5882 1 18.4194 29.195 250.478 276.412
5887 1 21.2799 29.8499 250.675 335.929
4141 1 22.7 30.2053 250.836 343.262
2870 1 23.7167 29.2324 250.836 315.582
5179 1 25.1486 29.5302 250.731 304.763
3706 1 14.5374 20.4702 250.207 300.532
4006 1 -4.33612 5.93838 249.967 302.118
3628 1 29.3238 22.8327 252.229 287.241
3715 1 16.2988 31.2563 250.182 286.979
5883 1 18.7643 30.5909 250.511 292.681
5173 1 17.7221 31.5955 250.444 277.154
5885 1 20.2099 30.8655 250.619 308.661
5176 1 23.0706 31.6028 250.915 265.212
5181 1 25.4831 31.0132 250.511 322.686
5895 1 26.813 31.5548 250.142 257.831
4027 1 -5.49841 33.2681 250.002 257.15
4029 1 -3.03563 32.6375 250.05 314.885
5825 1 -0.264392 33.3737 250.181 293.065
6126 1 14.9318 2.31694 250.092 260.038
6130 1 13.9063 3.38784 250.059 242.519
5174 1 18.1718 32.9332 250.584 288.191
5890 1 19.6179 33.283 250.783 270.373
5888 1 20.5827 32.2762 250.827 263.237
5889 1 22.0053 32.6387 250.981 244.151
5175 1 24.4474 32.0597 250.8 298.891
5635 1 24.807 33.4286 250.86 270.714
5896 1 27.0785 32.9423 250.094 281.929
6196 1 -5.19452 34.6368 250.288 280.636
6194 1 -3.78558 34.9807 250.422 282.976
5095 1 -2.71693 34.009 250.268 315.568
5820 1 -1.27876 34.3843 250.399 307.725
5824 1 1.13784 33.7923 250.14 283.426
5062 1 -1.1705 2.97572 250.242 270.266
3718 1 17.2412 34.0263 250.297 255.711
5891 1 20.0302 34.6922 250.88 303.029
5893 1 22.401 34.0283 251.018 290.694
5634 1 23.7889 34.4139 251.08 298.536
5633 1 26.1275 33.9189 250.575 282.916
5185 1 28.2672 23.7678 252.29 336.842
2483 1 26.4574 -2.22339 251.868 278.359
2484 1 26.8673 -0.897043 251.765 341.401
3603 1 29.2485 -1.51359 252.022 358.207
6095 1 25.8172 0.098111 251.646 299.456
1497 1 28.2203 -0.530517 251.903 296.37
1498 1 28.6082 0.870981 251.774 281.318
6098 1 18.6381 2.95352 252.203 281.414
6097 1 20.0143 3.33967 252.6 337.582
5584 1 21.2429 2.63845 252.114 306.071
5591 1 22.6454 3.16226 252.132 294.637
6100 1 17.6474 5.07183 253.019 273.033
6099 1 17.5525 3.9226 252.313 354.146
6096 1 20.2863 4.46317 253.284 262.092
5677 1 21.1279 5.40343 253.277 287.999
5590 1 23.1729 4.57661 252.273 327.14
5589 1 24.524 4.8971 251.844 342.112
5588 1 25.4898 3.89249 251.532 257.888
4858 1 17.4523 6.30455 252.917 288.575
5676 1 22.3373 5.73591 252.788 286.534
4771 1 24.8974 6.26862 251.634 300.818
4866 1 17.265 8.54522 252.004 251.445
3700 1 16.8308 7.20252 252.175 283.551
4907 1 19.4327 8.32991 253.144 289.292
5680 1 20.6446 8.01889 253.258 272.822
5679 1 21.7852 8.18022 252.7 282.154
5678 1 22.6986 7.10682 252.541 277.008
4772 1 23.9782 7.32065 251.956 262.502
4904 1 18.5474 8.99732 252.358 287.308
4906 1 21.8742 9.49848 252.019 323.651
4905 1 19.2157 10.198 251.785 307.407
3629 1 29.0878 21.4563 251.855 309.411
5058 1 -3.65372 3.56003 250.069 353.277
3703 1 14.1806 19.0371 250.077 303.051
2564 1 13.5443 21.5383 250.024 299.639
4869 1 15.1477 27.0675 250.072 331.12
5137 1 11.5422 70.8061 246.76 292.131
4123 1 11.721 72.0116 246.254 274.433
6258 1 9.01051 36.5406 247.976 250.16
6257 1 10.41 36.239 248.203 257.299
6255 1 8.90949 37.92 247.525 366.14
6256 1 11.1095 37.4422 247.886 308.677
5208 1 12.42 37.7794 248.203 309.635
5933 1 7.89254 38.9048 247.694 263.803
5932 1 6.65803 38.515 248.203 318.022
6254 1 10.2478 38.4334 247.395 301.241
4166 1 12.8824 39.1472 248.113 317.912
5927 1 5.87793 40.8389 248.431 306.128
5929 1 8.22734 40.3176 247.669 307.17
5857 1 9.59453 40.7671 247.525 293.054
5859 1 10.6726 39.7932 247.389 287.277
5858 1 12.0172 40.2003 247.674 282.994
5928 1 7.22908 41.313 247.992 328.554
5168 1 7.52619 42.6811 247.962 273.031
5856 1 9.89115 42.1619 247.573 286.875
6208 1 11.2407 42.5812 247.69 360.757
6211 1 12.3299 41.581 247.833 300.755
6210 1 13.5866 41.9723 248.234 304.561
5167 1 6.50583 43.6232 248.279 330.086
5144 1 8.83879 43.1464 247.663 245.45
6209 1 11.6094 43.9645 247.851 268.877
4128 1 6.78084 45.0221 248.191 283.256
4126 1 8.12184 45.4767 247.928 278.14
5142 1 9.14699 44.5284 247.751 301.687
5143 1 10.5627 44.9213 247.919 266.616
4133 1 8.4578 46.9069 247.991 252.337
5158 1 10.861 46.3526 248.062 286.457
5159 1 9.81114 47.3718 248.036 307.849
5161 1 12.179 46.7174 248.3 351.903
5147 1 7.37903 47.8322 248.259 359.481
5160 1 10.1466 48.7431 248.191 293.163
5146 1 7.6824 49.2241 248.303 319.204
4132 1 9.08131 49.7059 248.35 271.951
2848 1 8.40922 69.0329 248.407 267.652
5663 1 10.8212 68.3286 248.126 272.197
5139 1 9.71141 69.2788 247.831 298.482
5661 1 12.2056 68.6814 247.887 313.816
5658 1 13.2401 67.8062 248.378 298.774
2850 1 7.4519 70.1035 248.657 278.23
5140 1 10.3364 70.2866 247.16 273.716
5138 1 12.5844 69.9916 247.364 253.007
3653 1 13.8868 70.5203 247.728 291.719
2853 1 7.69278 71.5119 248.331 317.164
4122 1 8.86761 71.9618 247.857 277.756
3652 1 14.1269 71.8374 247.579 313.255
5878 1 5.28284 35.1078 249.432 287.104
5879 1 5.4061 36.524 249.163 310.684
5930 1 8.14737 35.5956 248.341 271.508
5206 1 13.0156 35.5407 248.997 272.032
4164 1 15.4603 36.1178 249.601 269.182
5876 1 4.32851 37.5427 249.539 284.293
5931 1 6.25649 37.281 248.456 265.747
5207 1 13.2916 36.8185 248.721 281.359
4165 1 14.6269 37.1754 249.076 323.351
5169 1 4.50769 38.9489 249.2 274.012
5926 1 5.65631 39.4821 248.566 264.131
5203 1 14.231 39.5567 248.498 301.607
5204 1 15.0597 38.5362 249.032 325.726
5925 1 16.2863 38.8765 249.603 345.435
2858 1 3.5215 39.9167 249.638 294.373
5201 1 14.5642 40.9861 248.552 268.621
5920 1 16.6808 40.2736 249.609 305.872
5070 1 2.70929 42.2839 249.773 313.044
2859 1 3.71664 41.3549 249.413 322.011
5165 1 4.89187 41.7807 248.835 251.41
5202 1 15.7766 41.3271 249.181 301.785
5141 1 16.0866 42.6873 249.398 269.778
5066 1 2.94757 43.6795 249.572 317.852
4014 1 4.1801 44.1594 248.984 330.936
5166 1 5.22927 43.1823 248.703 275.261
6212 1 12.9674 44.3546 248.164 295.906
6213 1 13.9207 43.3539 248.438 316.517
5852 1 15.1836 43.7269 249.002 288.249
4016 1 4.47041 45.5712 248.837 260.425
5853 1 13.2546 45.7458 248.376 269.708
5855 1 15.4642 45.1095 249.27 295.411
6230 1 16.7503 45.4571 249.883 298.229
5065 1 2.22631 46.0479 249.715 326.61
4015 1 3.50227 46.5781 249.224 258.8
5145 1 6.03903 47.3772 248.473 308.688
4127 1 5.7838 45.9573 248.483 256.211
5854 1 14.5624 46.1132 248.926 301.91
5790 1 1.41553 48.4605 249.915 287.912
5154 1 2.72613 48.891 249.42 304.283
5152 1 3.75359 47.9516 249.072 287.447
5153 1 5.05489 48.4087 248.708 290.999
5873 1 12.5174 48.1341 248.557 281.01
6221 1 13.8617 48.5086 248.882 245.175
6220 1 14.824 47.5068 249.143 276.554
6222 1 16.1294 47.8457 249.578 325.292
5155 1 2.95369 50.3003 249.298 294.686
5865 1 5.27446 49.8301 248.661 275.973
5863 1 6.60997 50.2238 248.419 357.178
5874 1 11.4945 49.1001 248.423 319.811
5872 1 11.8366 50.4903 248.578 251.047
6351 1 14.2054 49.9133 249.015 309.735
6411 1 15.4825 50.2791 249.388 280.257
6413 1 16.4429 49.2543 249.694 319.793
6336 1 20.0943 58.1711 249.816 298.199
6184 1 0.587058 50.811 249.986 299.338
4131 1 1.86164 51.2913 249.568 297.329
5864 1 4.22893 50.7947 248.94 263.777
5860 1 6.94721 51.6345 248.542 282.656
5149 1 9.42566 51.1072 248.503 268.9
5151 1 8.34545 52.022 248.534 290.401
5157 1 10.768 51.4942 248.644 272.575
6350 1 13.1882 50.8779 248.816 307.416
6409 1 15.8251 51.6653 249.505 318.95
6408 1 17.1415 52.0408 249.93 270.337
6207 1 16.0013 71.8316 249.347 231.472
5224 1 -3.81255 65.2415 249.972 284.054
5072 1 1.13004 53.6403 249.708 298.92
4130 1 2.15227 52.7115 249.425 285.675
5862 1 4.51309 52.1827 248.89 261.048
4129 1 3.50066 53.1422 249.226 281.025
5861 1 5.86616 52.596 248.775 281.707
5150 1 8.68612 53.442 248.689 291.764
5156 1 11.1311 52.8864 248.799 317.042
5867 1 12.5225 53.257 248.896 301.435
6349 1 13.4995 52.2847 248.937 265.574
6348 1 14.8203 52.6577 249.162 317.513
6123 1 17.4843 53.4361 249.927 273.596
3682 1 23.996 53.6758 249.546 295.056
5073 1 1.45576 55.0623 249.727 277.619
4170 1 3.83645 54.552 249.236 342.928
5211 1 6.25362 54.0062 248.882 288.656
5212 1 5.22043 54.9716 249.05 289.803
5210 1 7.62293 54.4799 248.867 320.145
5148 1 10.083 53.8592 248.817 285.819
5868 1 12.8123 54.6952 248.963 294.414
5869 1 14.1768 55.0885 249.183 266.498
5866 1 15.1773 54.063 249.302 328.096
6122 1 16.5284 54.4972 249.63 300.649
5668 1 21.5716 54.5051 249.626 236.07
3680 1 22.8999 54.6595 249.265 317.754
3668 1 25.4401 54.0688 249.6 287.081
5232 1 5.37775 72.2224 248.978 310.276
4171 1 2.79288 55.5161 249.538 306.661
5938 1 5.51981 56.3786 249.043 322.356
5941 1 6.94162 56.8357 248.945 259.789
5209 1 8.00122 55.8288 248.872 300.218
6214 1 9.34404 56.2953 248.9 311.548
6215 1 10.4034 55.3084 248.803 278.915
6216 1 11.7733 55.7186 248.945 304.734
5871 1 14.5325 56.4909 249.186 253.356
6331 1 16.8648 55.8873 249.666 302.107
6334 1 18.2265 56.3205 249.784 288.468
6332 1 20.5943 55.5801 249.726 327.06
3676 1 23.5396 55.7617 248.821 285.379
3675 1 24.7012 56.3437 248.88 328.122
2539 1 25.7496 55.4573 249.302 287.873
2538 1 27.0675 55.9625 249.697 222.483
4186 1 0.739387 57.4052 249.787 314.622
4169 1 3.13921 56.9257 249.466 271.883
4187 1 2.08722 57.8542 249.58 303.416
5939 1 4.48098 57.3683 249.221 293.349
5940 1 7.25816 58.2273 248.979 257.972
6218 1 9.69959 57.7006 248.946 277.052
6219 1 11.0676 58.0627 249.029 266.297
6217 1 12.1219 57.1268 249.007 223.956
5870 1 13.5007 57.4897 249.108 269.882
6330 1 15.8882 56.9286 249.403 325.819
6335 1 18.6772 57.7607 249.732 272.969
5229 1 2.70558 71.2668 249.386 343.152
6337 1 20.9813 56.9463 249.835 324.359
4821 1 18.7554 64.5304 249.992 243.609
3677 1 25.0076 57.5855 249.129 255.096
2537 1 25.9433 58.2155 249.897 275.912
5170 1 17.4084 43.0373 249.942 306.789
4184 1 -0.030102 59.85 249.873 280.041
4182 1 2.36715 59.2403 249.512 338.081
5214 1 3.7856 59.7197 249.413 304.096
5942 1 4.82244 58.7459 249.26 263.799
5943 1 6.19142 59.1993 249.147 254.823
4173 1 8.62695 58.6263 249.005 283.248
4140 1 11.4006 59.4714 249.087 268.535
4138 1 13.8652 58.9266 249.233 264.438
4139 1 12.7989 59.9081 249.215 325.79
2857 1 15.2376 59.3229 249.4 287.43
6329 1 16.2984 58.327 249.466 323.674
6328 1 17.6674 58.739 249.598 247.154
6333 1 19.2411 55.2383 249.851 280.488
4183 1 1.30446 60.2643 249.556 309.396
5213 1 4.06309 61.1412 249.402 304.731
5654 1 6.46464 60.5915 249.224 299.255
5652 1 7.85349 61.0002 249.168 255.828
4172 1 8.92119 60.0692 249.142 304.535
4135 1 10.3091 60.4462 249.096 323.056
4134 1 13.0606 61.3007 249.281 287.856
1506 1 15.5626 60.7566 249.542 300.53
2513 1 16.9272 61.1704 249.625 326.901
2514 1 18.028 60.1665 249.673 310.351
5946 1 0.247057 71.711 249.385 290.958
4175 1 0.661247 62.7382 249.817 312.126
4174 1 1.67186 61.7466 249.611 280.592
4124 1 3.05146 62.0988 249.563 293.982
5655 1 5.41457 61.5936 249.263 299.372
5656 1 5.78761 62.9823 249.256 293.218
5653 1 8.24075 62.406 249.123 290.911
4815 1 9.5765 62.8527 249.132 272.268
4136 1 10.6433 61.8637 249.106 269.375
4137 1 12.0308 62.2971 249.177 297.512
2518 1 14.4505 61.7431 249.406 316.108
4823 1 17.1905 62.5786 249.621 301.617
4195 1 1.0154 64.1164 249.742 248.8
4191 1 2.35054 64.5658 249.655 298.558
4125 1 3.41216 63.5506 249.502 313.764
2856 1 4.75051 63.9486 249.384 268.14
5657 1 7.18016 63.37 249.198 300.833
4816 1 9.92755 64.265 248.954 263.936
4820 1 12.3644 63.6853 249.063 307.533
4819 1 13.7344 64.1297 249.137 266.161
2519 1 14.8032 63.1458 249.315 298.586
4822 1 16.1392 63.5732 249.493 243.746
4824 1 18.5813 63.0716 249.871 312.044
5225 1 -2.45935 65.6673 249.865 314.138
4189 1 -1.41168 64.6895 249.913 336.006
4194 1 0.00544276 65.091 249.761 277.684
4190 1 2.6853 65.9502 249.567 319.145
1715 1 5.07035 65.368 249.406 330.077
3655 1 6.42974 65.8063 249.223 228.91
4813 1 7.47386 64.7679 249.068 319.072
4814 1 8.81209 65.2744 248.935 300.856
5660 1 11.5606 66.0762 248.74 271.474
4817 1 11.3332 64.6306 248.92 276.939
4818 1 13.9796 65.5389 248.973 308.763
4825 1 15.3463 66.0081 249.147 274.212
4826 1 16.381 65.012 249.462 284.899
4827 1 17.6822 65.5547 249.722 318.201
5228 1 -4.55108 67.6181 249.731 280.483
5227 1 -4.88936 66.2139 249.964 336.136
5223 1 -2.10908 67.0869 249.714 296.696
4196 1 -0.734948 67.4813 249.698 314.933
4193 1 0.29462 66.4989 249.714 300.142
4192 1 1.64404 66.9719 249.614 308.907
2855 1 4.07681 66.4037 249.516 273.154
3657 1 6.77475 67.2287 249.104 327.585
3656 1 8.07334 67.6594 248.777 300.854
3654 1 9.08984 66.6557 248.738 311.895