ITEM: TIMESTEP
0
ITEM: NUMBER OF ATOMS
6459
ITEM: BOX BOUNDS pp pp pp
-7.7345425670859935e+00 2.1773454256708615e+02
-2.3739093354904872e+00 7.2373909335491717e+01
0.0000000000000000e+00 5.0000000000000000e+02
ITEM: ATOMS id type x y z f_5
5700 1 11.9951 -1.51853 246.372 0
4741 1 -6.94707 16.251 246.73 0
4740 1 -6.55088 17.6279 246.694 0
4743 1 -7.50091 18.6765 246.597 0
4900 1 9.60203 -1.82189 247.614 0
5701 1 14.6488 -1.89956 248.108 0
5702 1 8.30145 -0.115746 248.143 0
5703 1 9.66237 -0.489451 247.699 0
5705 1 10.8498 0.225734 247.682 0
5698 1 12.0336 -0.433594 247.092 0
5699 1 13.0956 0.141606 247.722 0
5704 1 8.67244 2.22436 248.419 0
6133 1 11.0849 1.48293 248.347 0
1484 1 -7.64646 11.3775 248.305 0
296 1 -6.20645 11.6457 248.31 0
295 1 -5.66143 12.921 247.928 0
1693 1 -3.33323 12.1883 248.434 0
1694 1 -4.25428 13.1585 247.957 0
4756 1 -6.55989 13.8969 247.476 0
1692 1 -3.7519 14.4924 247.673 0
1690 1 -1.43628 13.773 248.123 0
1683 1 -0.0286033 14.0998 248.3 0
1687 1 -6.08025 15.2578 247.196 0
1686 1 -4.70187 15.5238 247.371 0
1689 1 -2.36547 14.8009 247.837 0
2591 1 -1.92496 16.1685 247.73 0
1684 1 0.385303 15.4915 248.3 0
1685 1 -4.25409 16.8846 247.283 0
2594 1 -2.89961 17.2053 247.495 0
2592 1 -0.56512 16.5406 248.012 0
1688 1 -5.18427 17.963 246.994 0
840 1 -4.83081 19.3086 247.255 0
2595 1 -2.44296 18.5762 247.571 0
2596 1 -1.10291 18.9621 247.969 0
2593 1 -0.166457 17.907 248.111 0
1530 1 1.19716 18.2766 248.415 0
2431 1 -7.15917 19.9871 246.891 0
841 1 -5.77553 20.3079 247.191 0
1674 1 -3.47518 19.657 247.513 0
1673 1 -0.823037 20.3289 248.272 0
1675 1 -5.53534 21.7213 247.578 0
1680 1 -3.161 20.9932 247.849 0
1678 1 -4.19957 22.0316 247.908 0
1679 1 -1.81114 21.3936 248.213 0
2430 1 -6.60647 22.6947 247.703 0
1457 1 -6.31916 24.0593 247.992 0
1677 1 -3.8673 23.3841 248.251 0
1456 1 -7.35473 25.064 248.125 0
1676 1 -4.92427 24.4209 248.284 0
2403 1 -7.12304 -1.4677 248.914 0
2813 1 -4.70442 -1.96532 249.16 0
2588 1 -1.94454 -1.11345 249.385 0
2589 1 0.495074 -1.60445 249.505 0
1533 1 1.86393 -1.11733 249.509 0
1532 1 2.94351 -2.05056 249.372 0
3756 1 4.31442 -1.59755 249.101 0
3755 1 6.74541 -2.08343 248.683 0
4901 1 15.4777 -1.50176 249.135 0
1442 1 -6.78782 -0.130548 248.924 0
2815 1 -5.43528 0.396694 249.163 0
2814 1 -4.37453 -0.590308 249.157 0
2587 1 -3.01743 -0.186286 249.414 0
2590 1 -0.610559 -0.644992 249.506 0
4009 1 -0.33729 0.718199 249.717 0
1531 1 2.19495 0.351989 249.5 0
3754 1 4.5933 -0.116697 249.014 0
3753 1 5.92918 0.469269 248.815 0
3752 1 7.02647 -0.545505 248.534 0
4902 1 15.7387 -0.161027 249.601 0
3596 1 -7.32644 2.05044 248.929 0
5056 1 -5.19283 1.78332 249.425 0
5057 1 -3.8733 2.19324 249.75 0
2812 1 -2.77967 1.20911 249.712 0
4008 1 -1.40588 1.63398 249.87 0
4011 1 1.01756 1.19591 249.605 0
2600 1 3.55346 0.807121 249.248 0
2606 1 3.72214 2.25735 249.253 0
2599 1 6.19895 2.04183 248.859 0
6136 1 12.3503 1.84506 248.875 0
5696 1 13.5302 0.94833 248.719 0
5697 1 14.7388 0.956621 249.445 0
3597 1 -6.26306 2.83759 249.322 0
4010 1 1.21306 2.61936 249.753 0
2605 1 2.54718 2.8294 249.568 0
2604 1 4.97648 3.02473 249.105 0
5693 1 7.44782 2.76189 248.741 0
6132 1 9.99832 2.43201 248.58 0
6131 1 10.2409 3.74948 249.045 0
6135 1 12.588 3.14303 249.504 0
3595 1 -7.13729 5.22027 249.576 0
5055 1 -6.08082 4.23544 249.649 0
5054 1 -4.66718 4.56371 249.87 0
2601 1 5.20373 4.53194 249.385 0
5694 1 7.62973 4.21293 249.006 0
3744 1 6.52899 5.13223 249.243 0
5695 1 9.02348 4.63582 249.139 0
6134 1 11.5568 4.12287 249.494 0
1482 1 -6.73425 6.62968 249.455 0
4006 1 -4.33612 5.93838 249.967 0
2578 1 1.39329 6.95045 249.825 0
2602 1 4.13602 5.6503 249.603 0
3742 1 6.84429 6.55593 249.395 0
4895 1 9.36913 6.02107 249.478 0
4896 1 10.7455 6.44021 249.747 0
4897 1 11.8246 5.48986 249.859 0
2469 1 -7.67256 7.70889 249.173 0
2585 1 -5.31097 6.99249 249.665 0
2586 1 -4.79965 8.27931 249.389 0
2584 1 -2.49217 7.59728 249.933 0
4879 1 1.84047 8.16491 249.495 0
4880 1 3.34702 8.30301 249.319 0
3737 1 4.40349 7.22229 249.424 0
3738 1 5.81934 7.65142 249.447 0
3743 1 8.29262 6.97615 249.477 0
3750 1 8.62052 8.42017 249.561 0
3745 1 11.089 7.84953 249.876 0
2472 1 -7.15715 8.99539 248.888 0
1695 1 -5.70857 9.25719 248.906 0
2583 1 -3.40121 8.56364 249.456 0
843 1 -2.88358 9.90291 249.213 0
2579 1 -0.472903 9.16379 249.542 0
4882 1 0.962733 9.29213 249.294 0
4884 1 3.80118 9.77164 249.072 0
3740 1 6.22015 9.07059 249.349 0
3749 1 7.58724 9.47077 249.439 0
3748 1 10.0377 8.87783 249.692 0
842 1 -5.27008 10.6141 248.621 0
844 1 -3.83559 10.8783 248.792 0
2580 1 -1.44936 10.1673 249.199 0
2581 1 -0.975529 11.3935 248.761 0
4881 1 1.45263 10.6326 248.991 0
2582 1 0.447578 11.6384 248.705 0
4883 1 2.87462 10.8948 248.946 0
3739 1 5.24642 10.1549 249.184 0
3741 1 5.68751 11.5553 249.162 0
5689 1 7.96196 10.8921 249.425 0
5692 1 9.32324 11.3076 249.565 0
3751 1 10.3686 10.2795 249.678 0
5672 1 11.7552 10.6626 249.912 0
1691 1 -1.87102 12.4351 248.445 0
1681 1 0.943458 13.0107 248.582 0
4886 1 3.30019 12.2588 248.858 0
4889 1 4.68971 12.5906 248.954 0
5688 1 7.03741 11.9729 249.3 0
5691 1 9.77518 12.7148 249.693 0
3747 1 11.1867 13.1298 249.923 0
4887 1 2.33729 13.3081 248.762 0
4885 1 2.71059 14.7368 248.758 0
4890 1 5.06193 14.0266 249.061 0
4894 1 6.4425 14.4277 249.21 0
5687 1 7.42042 13.3835 249.432 0
5690 1 8.81495 13.7928 249.623 0
2562 1 11.5694 14.5563 249.862 0
2620 1 13.9757 13.8245 249.986 0
1682 1 1.7568 15.8071 248.532 0
4888 1 4.07344 15.0869 248.94 0
4893 1 6.85676 15.8236 249.168 0
4891 1 8.24018 16.2264 249.291 0
4892 1 9.19534 15.1768 249.58 0
777 1 10.5729 15.5803 249.801 0
1521 1 13.3682 16.2887 249.976 0
2563 1 12.9711 14.9046 249.871 0
1529 1 2.13041 17.1764 248.605 0
779 1 3.50158 17.574 248.882 0
2597 1 4.49296 16.4781 248.944 0
2598 1 5.87009 16.8774 249.053 0
3733 1 8.62895 17.6444 249.362 0
778 1 11.0042 16.9886 249.765 0
776 1 12.3738 17.3124 249.904 0
1525 1 3.89929 18.9501 249.048 0
2574 1 6.25718 18.2856 249.12 0
2575 1 5.26211 19.3353 249.204 0
3736 1 7.64568 18.6545 249.27 0
3735 1 10.4257 19.4238 249.744 0
3734 1 10.0138 18.0379 249.634 0
839 1 0.509928 20.6668 248.663 0
838 1 1.51111 19.6562 248.641 0
1526 1 2.87996 19.9852 248.944 0
2576 1 5.56832 20.7567 249.488 0
4878 1 7.99876 20.0398 249.525 0
4877 1 9.35945 20.4233 249.685 0
2566 1 11.7803 19.7657 249.871 0
2818 1 0.882477 22.0739 248.869 0
5816 1 2.25797 22.4193 249.142 0
5815 1 3.26263 21.3987 249.217 0
5814 1 4.58262 21.8115 249.526 0
4875 1 7.41027 22.4994 249.677 0
4873 1 6.99923 21.1038 249.625 0
4874 1 9.77636 21.828 249.762 0
3726 1 11.1383 22.1325 249.883 0
4020 1 -1.49233 22.7765 248.491 0
4019 1 -2.48119 23.7972 248.466 0
4021 1 -0.114729 23.1282 248.86 0
5818 1 2.56716 23.7964 249.429 0
5817 1 4.9698 23.1792 249.653 0
4022 1 6.37102 23.5474 249.694 0
4876 1 8.79815 22.9145 249.711 0
3725 1 11.5029 23.5297 249.828 0
1523 1 12.9429 23.9008 249.861 0
2565 1 13.9683 22.8993 249.949 0
3708 1 15.3723 23.22 249.984 0
6344 1 -2.15476 25.1347 248.762 0
6342 1 -0.79098 25.5501 249.058 0
4018 1 0.223893 24.531 249.111 0
5084 1 1.62363 24.8796 249.335 0
5819 1 3.95673 24.1971 249.621 0
5811 1 4.33093 25.6016 249.72 0
4023 1 6.68889 24.9798 249.78 0
2573 1 8.10979 25.3491 249.756 0
3728 1 9.13987 24.2864 249.72 0
3727 1 10.5393 24.6324 249.716 0
2569 1 13.3317 25.2882 249.834 0
3713 1 15.7396 24.6198 249.918 0
1453 1 -7.06364 26.3634 248.489 0
2817 1 -5.676 26.7474 248.747 0
1672 1 -4.57979 25.7856 248.61 0
6346 1 -3.21857 26.1578 248.79 0
6343 1 -0.505416 26.9183 249.393 0
5083 1 1.93442 26.2507 249.533 0
5809 1 3.30857 26.6291 249.663 0
5812 1 5.70811 26.0288 249.749 0
3730 1 8.44384 26.7445 249.664 0
3732 1 9.88574 27.078 249.639 0
2572 1 10.9266 26.0403 249.721 0
2570 1 12.3084 26.3645 249.809 0
3711 1 14.7215 25.6579 249.896 0
5092 1 -5.36349 28.0897 249.075 0
5096 1 -3.99509 28.5327 249.221 0
6347 1 -2.96128 27.5479 249.136 0
6345 1 -1.56476 27.9457 249.381 0
6200 1 0.905843 27.2517 249.518 0
6201 1 1.23167 28.6513 249.539 0
5808 1 3.66351 28.0511 249.745 0
5810 1 5.07725 28.4503 249.68 0
5813 1 6.1315 27.4427 249.733 0
4025 1 7.49386 27.8138 249.714 0
3731 1 10.2678 28.4787 249.656 0
4872 1 14.0869 28.1448 249.91 0
2571 1 12.6754 27.7491 249.791 0
2411 1 -6.4056 29.1251 249.24 0
5097 1 -3.6765 29.9155 249.563 0
5831 1 -2.26982 30.244 249.732 0
6202 1 -1.21177 29.3072 249.603 0
6199 1 0.171223 29.638 249.682 0
4030 1 2.63197 29.0152 249.655 0
5087 1 5.41817 29.8285 249.682 0
5086 1 6.84374 30.2038 249.632 0
4024 1 7.84916 29.1991 249.664 0
3729 1 9.26213 29.5399 249.591 0
3722 1 12.1162 30.267 249.662 0
1524 1 11.6764 28.8028 249.791 0
4871 1 14.5211 29.503 249.896 0
3541 1 -7.14064 31.4682 249.541 0
5093 1 -6.08577 30.4985 249.468 0
5094 1 -4.71831 30.9071 249.709 0
5830 1 -1.95472 31.6519 249.881 0
5833 1 0.51911 31.0275 249.803 0
5822 1 1.92291 31.4049 249.786 0
4031 1 3.00769 30.439 249.686 0
5089 1 4.4018 30.847 249.648 0
5085 1 7.19609 31.6708 249.605 0
2862 1 9.64405 30.9827 249.599 0
3723 1 11.0615 31.3881 249.654 0
3719 1 13.542 30.5822 249.709 0
5894 1 27.8147 30.6654 249.987 0
3546 1 -6.89311 32.8613 249.793 0
4028 1 -4.45772 32.2646 249.899 0
5832 1 -0.564376 32.0248 249.891 0
5823 1 2.24686 32.8297 249.957 0
5090 1 4.73283 32.2354 249.718 0
5091 1 3.68533 33.2068 249.926 0
5088 1 6.12823 32.6667 249.564 0
2864 1 8.9153 33.4202 249.207 0
2863 1 8.58909 32.0207 249.475 0
3724 1 11.5056 32.755 249.46 0
3720 1 13.9384 31.9761 249.676 0
3721 1 12.9354 33.0475 249.533 0
3717 1 15.3839 32.2959 249.864 0
5897 1 29.2819 32.3819 249.413 0
5898 1 28.4544 33.3844 249.756 0
5877 1 3.95199 34.6525 249.958 0
2819 1 7.80962 34.4341 248.977 0
2860 1 6.39058 34.0517 249.264 0
2861 1 10.4063 33.7773 249.127 0
4162 1 13.5095 34.3588 249.418 0
4161 1 14.9863 34.6999 249.652 0
3716 1 15.8738 33.6591 249.884 0
4793 1 28.857 34.7849 249.79 0
4770 1 20.3139 -1.53164 250.887 0
5583 1 21.6536 -1.13096 251.34 0
5582 1 22.7011 -2.10477 251.396 0
4898 1 16.9709 0.232137 250.209 0
4768 1 18.0749 -0.513459 250.345 0
4769 1 19.332 -0.516062 250.757 0
4899 1 17.1957 1.52865 250.854 0
5585 1 18.4631 1.72607 251.451 0
5586 1 19.6061 0.7917 251.35 0
5058 1 -3.65372 3.56003 250.069 0
5062 1 -1.1705 2.97572 250.242 0
5060 1 0.234548 3.46036 250.22 0
6130 1 13.9063 3.38784 250.059 0
6126 1 14.9318 2.31694 250.092 0
6125 1 16.2034 2.57871 250.755 0
1491 1 27.9547 3.26716 251.415 0
1488 1 29.3655 3.55433 251.249 0
5064 1 -2.29579 3.88603 250.439 0
5063 1 -2.00965 5.24741 250.696 0
5059 1 0.451172 4.85271 250.527 0
2603 1 2.88507 5.27175 250.009 0
6129 1 14.1761 4.80018 250.515 0
6127 1 15.5226 5.13851 251.122 0
6128 1 16.4093 3.9074 251.362 0
5588 1 25.4898 3.89249 251.532 0
767 1 26.8713 4.26395 251.359 0
5036 1 29.6997 4.95866 251.004 0
4007 1 -2.9437 6.27951 250.313 0
5061 1 -0.626473 5.69554 250.86 0
2577 1 1.5679 5.63556 250.174 0
3746 1 13.164 5.82689 250.283 0
3699 1 15.7527 6.64474 251.398 0
1492 1 26.2579 6.65268 251.271 0
768 1 27.2424 5.65459 251.175 0
5039 1 28.6502 5.97734 251.057 0
1528 1 -0.557391 6.98409 250.741 0
1527 1 -1.11132 8.03383 250.125 0
4855 1 12.4833 8.2802 250.163 0
4857 1 13.4819 7.26078 250.465 0
4856 1 14.796 7.67626 250.818 0
1493 1 26.6471 8.02422 251.067 0
2608 1 28.0192 8.34777 250.772 0
5040 1 29.049 7.35526 250.798 0
5673 1 12.8369 9.64446 250.153 0
5670 1 14.2037 10.0552 250.406 0
4854 1 15.1497 9.04603 250.849 0
4865 1 16.428 9.48591 251.323 0
3765 1 23.2283 9.77446 251.55 0
1495 1 24.2632 8.68227 251.558 0
1494 1 25.6409 9.02102 251.203 0
2609 1 28.3828 9.72079 250.557 0
2610 1 29.7544 10.0774 250.387 0
5671 1 14.5914 11.4051 250.325 0
5682 1 16.9343 10.8027 251.018 0
5686 1 18.3122 11.2001 251.23 0
3766 1 23.6244 11.15 251.185 0
2616 1 25.0138 11.4577 250.993 0
1536 1 25.9894 10.4222 250.947 0
1535 1 27.38 10.7553 250.679 0
5675 1 12.1384 12.0933 250.01 0
5674 1 13.5856 12.4255 250.053 0
5681 1 15.9724 11.8311 250.531 0
5684 1 16.3545 13.1888 250.378 0
5685 1 18.7431 12.5252 250.83 0
4859 1 20.1649 12.7793 250.782 0
4862 1 21.1636 11.7746 251.182 0
4861 1 22.6089 12.135 251.003 0
2615 1 25.415 12.8363 250.765 0
2614 1 27.7763 12.1842 250.577 0
2612 1 26.7724 13.162 250.641 0
2613 1 29.1882 12.5182 250.5 0
3771 1 15.3773 14.2139 250.057 0
5683 1 17.7863 13.5825 250.487 0
4863 1 20.5273 14.1709 250.553 0
4864 1 21.936 14.5346 250.651 0
4860 1 22.9844 13.5118 250.798 0
3767 1 24.3672 13.8577 250.757 0
2611 1 27.1904 14.5422 250.74 0
3759 1 29.618 13.8862 250.574 0
3774 1 15.7654 15.6021 250.103 0
3773 1 17.1819 15.9489 250.119 0
3772 1 18.17 14.9407 250.274 0
2617 1 19.6106 15.2179 250.305 0
3770 1 22.3522 15.931 250.582 0
3768 1 24.7335 15.2275 250.687 0
3769 1 23.7681 16.3008 250.698 0
2560 1 26.1757 15.6382 250.775 0
3762 1 28.632 14.9265 250.77 0
3763 1 28.9846 16.2863 250.843 0
2555 1 14.75 16.664 250.15 0
2554 1 17.5978 17.3706 250.082 0
2559 1 19.0284 17.6895 250.159 0
2618 1 19.997 16.6241 250.207 0
2619 1 21.4029 16.9457 250.405 0
2561 1 24.1386 17.694 250.716 0
4780 1 26.5656 17.0292 250.841 0
4781 1 27.9773 17.3419 250.905 0
3703 1 14.1806 19.0371 250.077 0
1522 1 12.7983 18.7448 250.036 0
3704 1 15.1561 18.0189 250.114 0
3701 1 16.5845 18.4147 250.15 0
2558 1 19.3667 19.0801 250.254 0
2556 1 21.7295 18.3785 250.516 0
2557 1 20.7446 19.3937 250.54 0
1520 1 23.1498 18.7336 250.732 0
4779 1 25.515 18.0666 250.852 0
4778 1 25.9163 19.3922 251.134 0
4777 1 28.3202 18.7338 251.091 0
3620 1 29.7283 19.0542 251.418 0
3706 1 14.5374 20.4702 250.207 0
3702 1 16.9577 19.8214 250.236 0
3705 1 15.957 20.842 250.306 0
1519 1 18.3789 20.1219 250.315 0
5900 1 21.138 20.8343 250.701 0
6234 1 23.4744 20.103 250.977 0
6235 1 24.8728 20.4221 251.168 0
4776 1 27.2933 19.7049 251.261 0
2567 1 12.1386 21.14 250.003 0
2564 1 13.5443 21.5383 250.024 0
3710 1 16.3982 22.263 250.248 0
1518 1 18.7376 21.5194 250.44 0
5901 1 20.1647 21.8242 250.525 0
6233 1 22.4767 21.1506 250.904 0
6428 1 22.8896 22.5333 250.88 0
6353 1 25.2298 21.7735 251.357 0
3709 1 17.8086 22.5875 250.351 0
3707 1 18.1961 23.9453 250.307 0
5899 1 20.5268 23.2478 250.547 0
6427 1 21.9405 23.6191 250.671 0
6429 1 24.2477 22.8257 251.191 0
3714 1 17.1816 24.9848 250.176 0
5182 1 19.5896 24.3139 250.424 0
6424 1 22.3615 24.9964 250.777 0
6425 1 23.7421 25.3287 251.073 0
6426 1 24.6468 24.2306 251.334 0
4869 1 15.1477 27.0675 250.072 0
3712 1 17.5471 26.3929 250.237 0
5183 1 20.0208 25.6985 250.426 0
2568 1 19.0175 26.762 250.367 0
5184 1 21.4186 26.0448 250.585 0
6415 1 24.2785 26.7501 251.028 0
6417 1 26.537 25.936 251.459 0
6416 1 25.6586 27.041 251.148 0
4868 1 16.5492 27.4733 250.178 0
5884 1 19.4206 28.1232 250.47 0
4149 1 21.8659 27.4102 250.705 0
5886 1 20.8335 28.4245 250.633 0
4150 1 23.2647 27.8113 250.881 0
5180 1 26.1861 28.3605 250.976 0
6119 1 27.7156 28.4262 250.861 0
6117 1 28.5597 27.2533 251.333 0
4870 1 15.9245 29.856 250.1 0
4867 1 16.9775 28.8892 250.237 0
5882 1 18.4194 29.195 250.478 0
5887 1 21.2799 29.8499 250.675 0
4141 1 22.7 30.2053 250.836 0
2870 1 23.7167 29.2324 250.836 0
5179 1 25.1486 29.5302 250.731 0
6118 1 28.5354 29.5047 250.224 0
3715 1 16.2988 31.2563 250.182 0
5883 1 18.7643 30.5909 250.511 0
5173 1 17.7221 31.5955 250.444 0
5885 1 20.2099 30.8655 250.619 0
5176 1 23.0706 31.6028 250.915 0
5181 1 25.4831 31.0132 250.511 0
5895 1 26.813 31.5548 250.142 0
4027 1 -5.49841 33.2681 250.002 0
4029 1 -3.03563 32.6375 250.05 0
5825 1 -0.264392 33.3737 250.181 0
5174 1 18.1718 32.9332 250.584 0
5890 1 19.6179 33.283 250.783 0
5888 1 20.5827 32.2762 250.827 0
5889 1 22.0053 32.6387 250.981 0
5175 1 24.4474 32.0597 250.8 0
5635 1 24.807 33.4286 250.86 0
5896 1 27.0785 32.9423 250.094 0
6196 1 -5.19452 34.6368 250.288 0
6194 1 -3.78558 34.9807 250.422 0
5095 1 -2.71693 34.009 250.268 0
5820 1 -1.27876 34.3843 250.399 0
5824 1 1.13784 33.7923 250.14 0
3718 1 17.2412 34.0263 250.297 0
5891 1 20.0302 34.6922 250.88 0
5893 1 22.401 34.0283 251.018 0
5634 1 23.7889 34.4139 251.08 0
5633 1 26.1275 33.9189 250.575 0
5581 1 24.0765 -1.65923 251.57 0
2483 1 26.4574 -2.22339 251.868 0
2484 1 26.8673 -0.897043 251.765 0
3603 1 29.2485 -1.51359 252.022 0
5580 1 21.9806 0.322501 251.592 0
6091 1 23.3705 0.702243 251.706 0
6090 1 24.4477 -0.298314 251.633 0
6095 1 25.8172 0.098111 251.646 0
1497 1 28.2203 -0.530517 251.903 0
5587 1 20.9222 1.25081 251.713 0
6092 1 23.7053 2.11079 251.831 0
6094 1 26.1207 1.46953 251.588 0
1496 1 27.547 1.86699 251.633 0
1498 1 28.6082 0.870981 251.774 0
6098 1 18.6381 2.95352 252.203 0
6097 1 20.0143 3.33967 252.6 0
5584 1 21.2429 2.63845 252.114 0
5591 1 22.6454 3.16226 252.132 0
6093 1 25.1272 2.51187 251.597 0
6100 1 17.6474 5.07183 253.019 0
6099 1 17.5525 3.9226 252.313 0
5590 1 23.1729 4.57661 252.273 0
5589 1 24.524 4.8971 251.844 0
4858 1 17.4523 6.30455 252.917 0
5676 1 22.3373 5.73591 252.788 0
4771 1 24.8974 6.26862 251.634 0
3700 1 16.8308 7.20252 252.175 0
5679 1 21.7852 8.18022 252.7 0
5678 1 22.6986 7.10682 252.541 0
4772 1 23.9782 7.32065 251.956 0
4866 1 17.265 8.54522 252.004 0
4904 1 18.5474 8.99732 252.358 0
4906 1 21.8742 9.49848 252.019 0
4905 1 19.2157 10.198 251.785 0
4903 1 20.7751 10.4234 251.713 0
6352 1 26.5887 22.1298 251.569 0
3627 1 27.6388 21.0904 251.573 0
3629 1 29.0878 21.4563 251.855 0
6354 1 26.9702 23.4633 251.864 0
5185 1 28.2672 23.7678 252.29 0
3628 1 29.3238 22.8327 252.229 0
6414 1 26.0347 24.5355 251.575 0
5186 1 28.6139 25.1004 252.46 0
5187 1 27.861 26.1423 251.812 0
6096 1 20.2863 4.46317 253.284 0
5677 1 21.1279 5.40343 253.277 0
4907 1 19.4327 8.32991 253.144 0
5680 1 20.6446 8.01889 253.258 0
5137 1 11.5422 70.8061 246.76 0
4123 1 11.721 72.0116 246.254 0
6258 1 9.01051 36.5406 247.976 0
5930 1 8.14737 35.5956 248.341 0
6257 1 10.41 36.239 248.203 0
6255 1 8.90949 37.92 247.525 0
6256 1 11.1095 37.4422 247.886 0
5208 1 12.42 37.7794 248.203 0
5933 1 7.89254 38.9048 247.694 0
5932 1 6.65803 38.515 248.203 0
6254 1 10.2478 38.4334 247.395 0
4166 1 12.8824 39.1472 248.113 0
5927 1 5.87793 40.8389 248.431 0
5929 1 8.22734 40.3176 247.669 0
5857 1 9.59453 40.7671 247.525 0
5859 1 10.6726 39.7932 247.389 0
5858 1 12.0172 40.2003 247.674 0
5928 1 7.22908 41.313 247.992 0
5168 1 7.52619 42.6811 247.962 0
5856 1 9.89115 42.1619 247.573 0
6208 1 11.2407 42.5812 247.69 0
6211 1 12.3299 41.581 247.833 0
6210 1 13.5866 41.9723 248.234 0
5167 1 6.50583 43.6232 248.279 0
5144 1 8.83879 43.1464 247.663 0
6209 1 11.6094 43.9645 247.851 0
4128 1 6.78084 45.0221 248.191 0
4126 1 8.12184 45.4767 247.928 0
5142 1 9.14699 44.5284 247.751 0
5143 1 10.5627 44.9213 247.919 0
6212 1 12.9674 44.3546 248.164 0
5853 1 13.2546 45.7458 248.376 0
4133 1 8.4578 46.9069 247.991 0
5158 1 10.861 46.3526 248.062 0
5159 1 9.81114 47.3718 248.036 0
5161 1 12.179 46.7174 248.3 0
5147 1 7.37903 47.8322 248.259 0
5160 1 10.1466 48.7431 248.191 0
5146 1 7.6824 49.2241 248.303 0
5863 1 6.60997 50.2238 248.419 0
4132 1 9.08131 49.7059 248.35 0
5874 1 11.4945 49.1001 248.423 0
2848 1 8.40922 69.0329 248.407 0
5663 1 10.8212 68.3286 248.126 0
5661 1 12.2056 68.6814 247.887 0
5658 1 13.2401 67.8062 248.378 0
5139 1 9.71141 69.2788 247.831 0
5140 1 10.3364 70.2866 247.16 0
5138 1 12.5844 69.9916 247.364 0
3653 1 13.8868 70.5203 247.728 0
2853 1 7.69278 71.5119 248.331 0
4122 1 8.86761 71.9618 247.857 0
3652 1 14.1269 71.8374 247.579 0
5878 1 5.28284 35.1078 249.432 0
5879 1 5.4061 36.524 249.163 0
5205 1 10.6939 35.0098 248.622 0
5206 1 13.0156 35.5407 248.997 0
4164 1 15.4603 36.1178 249.601 0
5876 1 4.32851 37.5427 249.539 0
5931 1 6.25649 37.281 248.456 0
5207 1 13.2916 36.8185 248.721 0
4165 1 14.6269 37.1754 249.076 0
5169 1 4.50769 38.9489 249.2 0
5926 1 5.65631 39.4821 248.566 0
5203 1 14.231 39.5567 248.498 0
5204 1 15.0597 38.5362 249.032 0
5925 1 16.2863 38.8765 249.603 0
2858 1 3.5215 39.9167 249.638 0
5201 1 14.5642 40.9861 248.552 0
5920 1 16.6808 40.2736 249.609 0
5070 1 2.70929 42.2839 249.773 0
2859 1 3.71664 41.3549 249.413 0
5165 1 4.89187 41.7807 248.835 0
5202 1 15.7766 41.3271 249.181 0
5141 1 16.0866 42.6873 249.398 0
5066 1 2.94757 43.6795 249.572 0
4014 1 4.1801 44.1594 248.984 0
5166 1 5.22927 43.1823 248.703 0
6213 1 13.9207 43.3539 248.438 0
5852 1 15.1836 43.7269 249.002 0
5170 1 17.4084 43.0373 249.942 0
5069 1 2.02388 44.6416 249.964 0
4016 1 4.47041 45.5712 248.837 0
5855 1 15.4642 45.1095 249.27 0
6230 1 16.7503 45.4571 249.883 0
5065 1 2.22631 46.0479 249.715 0
4015 1 3.50227 46.5781 249.224 0
5145 1 6.03903 47.3772 248.473 0
4127 1 5.7838 45.9573 248.483 0
5854 1 14.5624 46.1132 248.926 0
6228 1 17.1058 46.8584 249.999 0
5790 1 1.41553 48.4605 249.915 0
5154 1 2.72613 48.891 249.42 0
5152 1 3.75359 47.9516 249.072 0
5153 1 5.05489 48.4087 248.708 0
5873 1 12.5174 48.1341 248.557 0
6221 1 13.8617 48.5086 248.882 0
6220 1 14.824 47.5068 249.143 0
6222 1 16.1294 47.8457 249.578 0
5155 1 2.95369 50.3003 249.298 0
5865 1 5.27446 49.8301 248.661 0
5872 1 11.8366 50.4903 248.578 0
6351 1 14.2054 49.9133 249.015 0
6411 1 15.4825 50.2791 249.388 0
6413 1 16.4429 49.2543 249.694 0
6184 1 0.587058 50.811 249.986 0
4131 1 1.86164 51.2913 249.568 0
5864 1 4.22893 50.7947 248.94 0
5860 1 6.94721 51.6345 248.542 0
5149 1 9.42566 51.1072 248.503 0
5151 1 8.34545 52.022 248.534 0
5157 1 10.768 51.4942 248.644 0
6350 1 13.1882 50.8779 248.816 0
6409 1 15.8251 51.6653 249.505 0
6408 1 17.1415 52.0408 249.93 0
5072 1 1.13004 53.6403 249.708 0
4130 1 2.15227 52.7115 249.425 0
5862 1 4.51309 52.1827 248.89 0
4129 1 3.50066 53.1422 249.226 0
5861 1 5.86616 52.596 248.775 0
5150 1 8.68612 53.442 248.689 0
5156 1 11.1311 52.8864 248.799 0
5867 1 12.5225 53.257 248.896 0
6349 1 13.4995 52.2847 248.937 0
6348 1 14.8203 52.6577 249.162 0
6123 1 17.4843 53.4361 249.927 0
3682 1 23.996 53.6758 249.546 0
5073 1 1.45576 55.0623 249.727 0
4170 1 3.83645 54.552 249.236 0
5211 1 6.25362 54.0062 248.882 0
5212 1 5.22043 54.9716 249.05 0
5210 1 7.62293 54.4799 248.867 0
5148 1 10.083 53.8592 248.817 0
5868 1 12.8123 54.6952 248.963 0
5869 1 14.1768 55.0885 249.183 0
5866 1 15.1773 54.063 249.302 0
6122 1 16.5284 54.4972 249.63 0
6333 1 19.2411 55.2383 249.851 0
5668 1 21.5716 54.5051 249.626 0
3680 1 22.8999 54.6595 249.265 0
3668 1 25.4401 54.0688 249.6 0
5074 1 0.381266 56.0466 249.915 0
4171 1 2.79288 55.5161 249.538 0
5938 1 5.51981 56.3786 249.043 0
5209 1 8.00122 55.8288 248.872 0
6214 1 9.34404 56.2953 248.9 0
6215 1 10.4034 55.3084 248.803 0
6216 1 11.7733 55.7186 248.945 0
5871 1 14.5325 56.4909 249.186 0
6331 1 16.8648 55.8873 249.666 0
6334 1 18.2265 56.3205 249.784 0
6332 1 20.5943 55.5801 249.726 0
3676 1 23.5396 55.7617 248.821 0
3675 1 24.7012 56.3437 248.88 0
2539 1 25.7496 55.4573 249.302 0
2538 1 27.0675 55.9625 249.697 0
4186 1 0.739387 57.4052 249.787 0
4169 1 3.13921 56.9257 249.466 0
4187 1 2.08722 57.8542 249.58 0
5939 1 4.48098 57.3683 249.221 0
5941 1 6.94162 56.8357 248.945 0
5940 1 7.25816 58.2273 248.979 0
6218 1 9.69959 57.7006 248.946 0
6219 1 11.0676 58.0627 249.029 0
6217 1 12.1219 57.1268 249.007 0
5870 1 13.5007 57.4897 249.108 0
6330 1 15.8882 56.9286 249.403 0
6329 1 16.2984 58.327 249.466 0
6335 1 18.6772 57.7607 249.732 0
6336 1 20.0943 58.1711 249.816 0
6337 1 20.9813 56.9463 249.835 0
3677 1 25.0076 57.5855 249.129 0
2537 1 25.9433 58.2155 249.897 0
4184 1 -0.030102 59.85 249.873 0
4185 1 -0.34889 58.4019 249.978 0
4182 1 2.36715 59.2403 249.512 0
5214 1 3.7856 59.7197 249.413 0
5942 1 4.82244 58.7459 249.26 0
5943 1 6.19142 59.1993 249.147 0
4173 1 8.62695 58.6263 249.005 0
4140 1 11.4006 59.4714 249.087 0
4138 1 13.8652 58.9266 249.233 0
4139 1 12.7989 59.9081 249.215 0
2857 1 15.2376 59.3229 249.4 0
6328 1 17.6674 58.739 249.598 0
5218 1 -1.02459 60.844 249.947 0
4183 1 1.30446 60.2643 249.556 0
5213 1 4.06309 61.1412 249.402 0
5654 1 6.46464 60.5915 249.224 0
5652 1 7.85349 61.0002 249.168 0
4172 1 8.92119 60.0692 249.142 0
4135 1 10.3091 60.4462 249.096 0
4134 1 13.0606 61.3007 249.281 0
1506 1 15.5626 60.7566 249.542 0
2513 1 16.9272 61.1704 249.625 0
2514 1 18.028 60.1665 249.673 0
2515 1 19.4425 60.6202 249.889 0
5215 1 -0.681462 62.303 249.961 0
4175 1 0.661247 62.7382 249.817 0
4174 1 1.67186 61.7466 249.611 0
4124 1 3.05146 62.0988 249.563 0
5655 1 5.41457 61.5936 249.263 0
5656 1 5.78761 62.9823 249.256 0
5653 1 8.24075 62.406 249.123 0
4815 1 9.5765 62.8527 249.132 0
4136 1 10.6433 61.8637 249.106 0
4137 1 12.0308 62.2971 249.177 0
2518 1 14.4505 61.7431 249.406 0
4823 1 17.1905 62.5786 249.621 0
4195 1 1.0154 64.1164 249.742 0
4191 1 2.35054 64.5658 249.655 0
4125 1 3.41216 63.5506 249.502 0
2856 1 4.75051 63.9486 249.384 0
5657 1 7.18016 63.37 249.198 0
4816 1 9.92755 64.265 248.954 0
4820 1 12.3644 63.6853 249.063 0
4819 1 13.7344 64.1297 249.137 0
2519 1 14.8032 63.1458 249.315 0
4822 1 16.1392 63.5732 249.493 0
4821 1 18.7554 64.5304 249.992 0
4824 1 18.5813 63.0716 249.871 0
5224 1 -3.81255 65.2415 249.972 0
5225 1 -2.45935 65.6673 249.865 0
4189 1 -1.41168 64.6895 249.913 0
4194 1 0.00544276 65.091 249.761 0
4190 1 2.6853 65.9502 249.567 0
1715 1 5.07035 65.368 249.406 0
3655 1 6.42974 65.8063 249.223 0
4813 1 7.47386 64.7679 249.068 0
4814 1 8.81209 65.2744 248.935 0
5660 1 11.5606 66.0762 248.74 0
4817 1 11.3332 64.6306 248.92 0
4818 1 13.9796 65.5389 248.973 0
4825 1 15.3463 66.0081 249.147 0
4826 1 16.381 65.012 249.462 0
4827 1 17.6822 65.5547 249.722 0
5227 1 -4.88936 66.2139 249.964 0
5228 1 -4.55108 67.6181 249.731 0
5223 1 -2.10908 67.0869 249.714 0
4196 1 -0.734948 67.4813 249.698 0
4193 1 0.29462 66.4989 249.714 0
4192 1 1.64404 66.9719 249.614 0
2855 1 4.07681 66.4037 249.516 0
3657 1 6.77475 67.2287 249.104 0
3656 1 8.07334 67.6594 248.777 0
3654 1 9.08984 66.6557 248.738 0
5662 1 10.4897 67.0291 248.57 0
5659 1 12.9176 66.4528 248.663 0
4829 1 15.5712 67.3981 249.078 0
4828 1 17.9044 67.0051 249.828 0
2882 1 -6.99086 68.1896 249.835 0
5221 1 -5.59236 68.5714 249.671 0
5226 1 -3.1926 68.0751 249.57 0
5235 1 -0.405685 68.8942 249.536 0
4198 1 1.98945 68.4118 249.547 0
4199 1 3.33028 68.8217 249.464 0
2854 1 4.39494 67.8006 249.434 0
2849 1 5.743 68.3047 249.278 0
2517 1 14.5661 68.3503 248.584 0
4830 1 16.7877 67.9694 249.555 0
5163 1 -5.27827 69.9628 249.439 0
5162 1 -3.89992 70.4374 249.327 0
4197 1 -2.83118 69.4803 249.374 0
5233 1 -1.44643 69.8349 249.422 0
5236 1 0.94266 69.3887 249.568 0
5234 1 1.30399 70.7746 249.469 0
5231 1 3.77098 70.2152 249.358 0
5230 1 5.10079 70.7188 249.189 0
2851 1 6.09998 69.7051 249.057 0
2850 1 7.4519 70.1035 248.657 0
2852 1 14.833 69.7722 248.547 0
4120 1 17.0425 69.4497 249.604 0
4119 1 15.9957 70.4537 249.222 0
1722 1 -6.40265 70.9282 249.298 0
5164 1 -6.04185 72.3042 249.097 0
5875 1 -3.60807 71.8458 249.292 0
5945 1 -2.24361 72.2205 249.385 0
5944 1 -1.14747 71.2623 249.421 0
5946 1 0.247057 71.711 249.385 0
5229 1 2.70558 71.2668 249.386 0
5232 1 5.37775 72.2224 248.978 0
6207 1 16.0013 71.8316 249.347 0
4735 1 -6.2251 35.6512 250.357 0
4729 1 -7.65992 35.3444 250.07 0
6195 1 -3.42688 36.3208 250.74 0
5821 1 -0.91949 35.7171 250.632 0
6188 1 0.427122 36.1201 250.636 0
6191 1 1.51388 35.1711 250.319 0
6193 1 2.90747 35.5948 250.244 0
4163 1 16.7989 36.4371 250.057 0
2866 1 17.6888 35.3926 250.404 0
2867 1 19.0273 35.7183 250.651 0
2868 1 21.8497 36.4987 251.143 0
5892 1 21.4481 35.0716 251.013 0
5632 1 24.1919 35.7787 251.237 0
5631 1 26.5525 35.2685 250.74 0
5630 1 25.5727 36.1779 251.159 0
4794 1 27.9001 35.6774 250.388 0
5558 1 -7.02976 38.0883 250.602 0
6198 1 -5.91386 37.0074 250.635 0
6197 1 -4.47017 37.3404 250.923 0
5827 1 -2.01261 36.6971 250.85 0
5826 1 -1.70627 38.0881 250.996 0
6190 1 0.707278 37.5325 250.685 0
6189 1 2.04951 37.9933 250.4 0
6192 1 3.13117 37.0071 250.189 0
5924 1 17.192 37.8069 250.079 0
2865 1 19.4388 37.1474 250.678 0
2869 1 20.8093 37.4794 250.986 0
4792 1 23.2149 36.8407 251.264 0
4791 1 25.9843 37.5871 251.243 0
5629 1 27.3613 37.9916 250.961 0
5628 1 28.3589 37.0599 250.577 0
5627 1 29.7702 37.4144 250.302 0
5557 1 -6.33345 39.1477 251.129 0
5082 1 -5.12117 39.6322 251.428 0
5829 1 -4.08545 38.6703 251.283 0
5828 1 -2.72178 39.05 251.263 0
4026 1 -0.329149 38.5188 250.838 0
1716 1 2.27352 39.4532 250.226 0
5923 1 18.5104 38.2402 250.429 0
5921 1 18.918 39.5913 250.501 0
4146 1 21.1683 38.8717 251.164 0
4143 1 22.5869 39.2885 251.395 0
4789 1 23.6188 38.2144 251.423 0
4790 1 25.0071 38.5917 251.458 0
5624 1 27.7586 39.3248 251.09 0
5625 1 29.1623 39.6571 250.981 0
5077 1 -2.37403 40.4782 251.466 0
4013 1 0.0106063 39.9236 250.874 0
5076 1 -0.971647 40.9186 251.183 0
4012 1 1.30952 40.4119 250.476 0
5922 1 18.0115 40.6108 250.076 0
4145 1 20.223 39.9486 250.975 0
4148 1 22.9891 40.6856 251.489 0
4788 1 25.3373 39.9762 251.549 0
4787 1 26.7411 40.4053 251.357 0
5595 1 29.5051 41.0658 251.142 0
715 1 -7.22825 41.811 251.309 0
5079 1 -0.698056 42.3364 251.158 0
5071 1 1.50996 41.8411 250.327 0
5172 1 18.376 42.0198 250.289 0
5171 1 19.6612 42.3625 250.809 0
4144 1 20.6182 41.3399 251.13 0
4147 1 21.9583 41.7129 251.434 0
5192 1 24.7326 42.4414 251.5 0
4156 1 27.1392 41.7562 251.296 0
4157 1 28.5452 42.1198 251.204 0
750 1 -7.67552 43.2207 251.281 0
5081 1 -1.75812 43.2857 251.477 0
5067 1 0.538531 42.8609 250.666 0
5068 1 0.790905 44.2246 250.519 0
5880 1 20.0121 43.7665 250.884 0
6225 1 21.3609 44.1904 251.183 0
6224 1 22.337 43.1574 251.43 0
5904 1 26.5177 44.1758 251.258 0
5193 1 26.1417 42.7872 251.42 0
4155 1 28.9051 43.4795 251.086 0
860 1 -6.34867 45.4763 251.305 0
5799 1 -1.51103 44.7411 251.311 0
5801 1 -2.60188 45.6413 251.391 0
5798 1 -0.209824 45.2036 250.876 0
6231 1 17.7401 44.3929 250.151 0
6232 1 19.0391 44.7938 250.66 0
6226 1 21.7135 45.581 251.156 0
6360 1 24.1223 44.9074 251.423 0
6358 1 25.4888 45.193 251.277 0
5903 1 27.899 44.5549 251.036 0
4209 1 -7.39801 46.2681 250.904 0
5797 1 -5.0107 45.9912 251.427 0
5804 1 -4.80539 47.4227 251.269 0
5802 1 -2.46503 47.0734 251.131 0
5800 1 -0.0297821 46.601 250.581 0
5791 1 1.23074 47.0308 250.027 0
6229 1 18.4056 47.2771 250.474 0
6227 1 19.32 46.1775 250.763 0
5881 1 20.6854 46.6305 250.965 0
6359 1 23.1301 45.9573 251.263 0
6357 1 23.5514 47.308 251.078 0
6356 1 25.9066 46.5968 251.071 0