LAMMPS data file via write_data, version 8 Feb 2023, timestep = 5000

6459 atoms
1 atom types

-10.246921358308873 220.24692135830898 xlo xhi
-3.3706726003415324 73.37067260034367 ylo yhi
0 500 zlo zhi

Masses

1 12.0107

Atoms # atomic

2813 1 -8.550140330878726 -3.015561505903054 250 0 0 0
2588 1 -5.726912066258016 -2.1260382649058114 250 0 0 0
2589 1 -3.1889498908419234 -2.6109183998395262 250 0 0 0
1533 1 -1.7775531648300376 -2.1035008208557415 250 0 0 0
1532 1 -0.687013754226714 -3.0578830388930758 250 0 0 0
3756 1 0.6945723095697329 -2.5363486826989496 250 0 0 0
3755 1 3.117326161283897 -3.070189324829793 250 0 0 0
4900 1 5.868301188328648 -2.813165803394815 250 0 0 0
5700 1 7.966953320488686 -2.8558717437931858 250 0 0 0
5701 1 10.836941614044282 -2.995581328343676 250 0 0 0
4901 1 12.103226910069939 -2.6798304516844897 250 0 0 0
4768 1 14.810412175491443 -1.8965294824472214 250 0 0 0
4770 1 17.22436732423477 -2.6449020057965917 250 0 0 0
5583 1 18.640909860249895 -2.1835394315395202 250 0 0 0
5582 1 19.689993641793517 -3.1599633671504814 250 0 0 0
5581 1 21.089978889352878 -2.703196726717347 250 0 0 0
2483 1 23.569437280683047 -3.2717648236855723 250 0 0 0
2484 1 23.946130255694854 -1.8902705519328988 250 0 0 0
3603 1 26.45667478088799 -2.5449579568366296 250 0 0 0
3604 1 27.878842105552646 -2.224767278395665 250 0 0 0
2815 1 -9.394962147660966 -0.588937185445401 250 0 0 0
2814 1 -8.266742200251095 -1.5891712509356608 250 0 0 0
2587 1 -6.864554121864881 -1.1667819273694866 250 0 0 0
2590 1 -4.307470115648617 -1.6687356261088282 250 0 0 0
4009 1 -4.021897546371741 -0.251537709378184 250 0 0 0
1531 1 -1.4810037301910661 -0.6457778958626544 250 0 0 0
3754 1 0.975580537961693 -1.0195762857123392 250 0 0 0
3753 1 2.2992224725540193 -0.47852645823489126 250 0 0 0
3752 1 3.3565544605820494 -1.4808271605266425 250 0 0 0
5702 1 4.605750856862393 -1.0681261270136742 250 0 0 0
5703 1 5.846921586540726 -1.4961807608238984 250 0 0 0
5705 1 7.183112191010907 -0.814679278600378 250 0 0 0
5698 1 8.244393734494338 -1.6878268798869733 250 0 0 0
5699 1 9.470790815640427 -1.3734954520014544 250 0 0 0
5696 1 10.0882941079412 -0.2559359739578484 250 0 0 0
4902 1 12.406894726145943 -1.2908967142785654 250 0 0 0
4898 1 13.755163789497045 -0.9939310708400193 250 0 0 0
4769 1 16.185158778495328 -1.6827988438991592 250 0 0 0
5586 1 16.554332487282664 -0.2555329618507177 250 0 0 0
5580 1 19.025404759589165 -0.7532646268742254 250 0 0 0
6090 1 21.463846345852623 -1.2926247123060552 250 0 0 0
6091 1 20.416076320311376 -0.2928027939610663 250 0 0 0
6095 1 22.887448689796887 -0.8933884179437271 250 0 0 0
1497 1 25.38391305567348 -1.5347110494367364 250 0 0 0
5056 1 -9.13674452816733 0.8423243728496999 250 0 0 0
5057 1 -7.753790009041702 1.230265112086014 250 0 0 0
2812 1 -6.594043628797877 0.2421354990979605 250 0 0 0
4008 1 -5.176331777564997 0.6577811522008664 250 0 0 0
4011 1 -2.601264920176044 0.25862553499041424 250 0 0 0
2600 1 -0.10374470436351858 -0.08018189769397636 250 0 0 0
2599 1 2.5425552143782 1.0917487704315463 250 0 0 0
5704 1 5.004908520047182 1.0229949469980377 250 0 0 0
6132 1 6.337460284223638 1.3517935379972639 250 0 0 0
6133 1 7.461747666155821 0.5151788781087718 250 0 0 0
6136 1 8.916375802812459 0.8211458021865534 250 0 0 0
5697 1 11.430342770543318 -0.09805070790837336 250 0 0 0
6126 1 11.72352779963102 1.3258253447539141 250 0 0 0
4899 1 14.098537245464291 0.43753656969589716 250 0 0 0
5585 1 15.491894008174764 0.718634610628415 250 0 0 0
5587 1 17.98381220261637 0.21453736317423888 250 0 0 0
6092 1 20.790069383285974 1.1289229272963355 250 0 0 0
6094 1 23.265372629665833 0.49854819867542666 250 0 0 0
1496 1 24.696626405894246 0.8656507576201946 250 0 0 0
1498 1 25.754189387275936 -0.15290680647229843 250 0 0 0
1490 1 27.17570680265436 0.1940043145678393 250 0 0 0
5058 1 -7.475927347914232 2.6209814358513017 250 0 0 0
5064 1 -6.043112616107286 2.986055213340265 250 0 0 0
5062 1 -4.896459206246274 2.0413583930229273 250 0 0 0
5060 1 -3.4545658450070524 2.4915290563439707 250 0 0 0
4010 1 -2.317056511007131 1.6874328461364712 250 0 0 0
2605 1 -1.0069267724188968 2.114271128310732 250 0 0 0
2606 1 0.1980524926742397 1.5198927476990671 250 0 0 0
2604 1 1.4649569431486296 2.111155599175251 250 0 0 0
5693 1 3.821317405471904 1.6620730910909765 250 0 0 0
6131 1 6.6716737458701525 2.7411104494715923 250 0 0 0
6135 1 9.263048763674806 2.16421818728428 250 0 0 0
6130 1 10.68669043174062 2.437633860589074 250 0 0 0
6125 1 13.096494305362606 1.614621276018319 250 0 0 0
6098 1 15.836330987468585 2.0504522541273165 250 0 0 0
6097 1 17.1929741920962 2.4698184773214225 250 0 0 0
5584 1 18.35389970145228 1.6656162056125585 250 0 0 0
5591 1 19.741359936268534 2.1642362108252833 250 0 0 0
6093 1 22.220607085006183 1.513486849347916 250 0 0 0
5588 1 22.642452686063752 2.8988873044965393 250 0 0 0
1491 1 25.084577609787132 2.255243768817812 250 0 0 0
1488 1 26.497578903067822 2.6207101785982214 250 0 0 0
1489 1 27.539622312761296 1.5896017500834116 250 0 0 0
5055 1 -10.068532353460318 3.2930280040372506 250 0 0 0
5054 1 -8.597430004549759 3.625737279695093 250 0 0 0
5063 1 -5.6866494064220285 4.347557248297062 250 0 0 0
5059 1 -3.201866002414715 3.8418516777301903 250 0 0 0
2603 1 -0.5796023010233176 4.236076000454841 250 0 0 0
2601 1 1.7311611982936557 3.673085112236335 250 0 0 0
3744 1 3.08935358609278 4.177091880682009 250 0 0 0
5694 1 4.149760231000632 3.2026359893302208 250 0 0 0
5695 1 5.575096342716996 3.6912112021319365 250 0 0 0
6134 1 8.131519059022896 3.1255123065594224 250 0 0 0
4897 1 8.49580769176518 4.498743758517125 250 0 0 0
6129 1 11.044087902935765 3.8278069968604487 250 0 0 0
6127 1 12.487279215330384 4.1804537709362455 250 0 0 0
6128 1 13.461994499851308 3.0428833756459626 250 0 0 0
6099 1 14.873337546389644 3.126767466521171 250 0 0 0
6100 1 15.341341343060808 4.3021084248947385 250 0 0 0
6096 1 17.35732401447841 3.7250287988362247 250 0 0 0
5677 1 18.17414181031486 4.574643364539272 250 0 0 0
5590 1 20.222503045257124 3.5613393012462686 250 0 0 0
5589 1 21.65536338798672 3.9305869720652065 250 0 0 0
767 1 24.061678871265045 3.2817909088739525 250 0 0 0
5036 1 26.865378506430492 4.031717833161368 250 0 0 0
2585 1 -9.240182544674214 6.005737487061892 250 0 0 0
4006 1 -8.200361115231745 4.997116099794673 250 0 0 0
4007 1 -6.728608643206871 5.342743886434708 250 0 0 0
5061 1 -4.266999803720498 4.703347325498252 250 0 0 0
1528 1 -4.031348538241453 5.969524849989826 250 0 0 0
2577 1 -1.8267591414279496 4.651687592549773 250 0 0 0
2578 1 -1.9316168664832045 5.996814184089713 250 0 0 0
2602 1 0.6716241832904285 4.665740368232414 250 0 0 0
3742 1 3.4539948048816136 5.655258013253958 250 0 0 0
3743 1 4.906101905922912 6.109152616699715 250 0 0 0
4895 1 5.9502250681240465 5.101530695758572 250 0 0 0
4896 1 7.419373813038012 5.4975682314744 250 0 0 0
3746 1 9.952384566076162 4.845271921901589 250 0 0 0
3699 1 12.769442823889085 5.6143735206174075 250 0 0 0
4858 1 15.051313062599565 5.443477004683587 250 0 0 0
3700 1 14.055645993743884 6.225896914365827 250 0 0 0
5676 1 19.42968143973476 4.742763492350811 250 0 0 0
5678 1 19.835875553173285 6.115759094027759 250 0 0 0
4771 1 22.08585856699114 5.374967679791412 250 0 0 0
1492 1 23.4583420944659 5.751586777330451 250 0 0 0
768 1 24.454598373840607 4.701032798778212 250 0 0 0
5039 1 25.84438780630708 5.077280453274874 250 0 0 0
2586 1 -8.743289920469275 7.36166460453762 250 0 0 0
2583 1 -7.229757529455069 7.703027120148756 250 0 0 0
2584 1 -6.2503674019280435 6.698022638898971 250 0 0 0
1527 1 -4.713653167243912 7.059051052892621 250 0 0 0
4879 1 -1.502177834129143 7.246124426454045 250 0 0 0
4880 1 -0.03348956517771809 7.352752257534403 250 0 0 0
3737 1 0.9557950658906433 6.224396122889117 250 0 0 0
3738 1 2.4204054383071347 6.672517386950407 250 0 0 0
3750 1 5.360475252146174 7.5351734701715785 250 0 0 0
3745 1 7.834671088101814 6.8863813229258515 250 0 0 0
4855 1 9.28119004856665 7.259833827962742 250 0 0 0
4857 1 10.310131885977825 6.237854553136329 250 0 0 0
4856 1 11.703246226568442 6.63381722463026 250 0 0 0
4866 1 14.424974979747024 7.612349150664201 250 0 0 0
4907 1 16.531565853588962 6.929149134553999 250 0 0 0
5680 1 17.664710647615127 6.6089007597185745 250 0 0 0
5679 1 18.82689465361898 7.112801075815195 250 0 0 0
4772 1 21.15312044154929 6.469941772591179 250 0 0 0
1493 1 23.805461632962473 7.183319732052601 250 0 0 0
5040 1 26.20063857293296 6.50112931565757 250 0 0 0
2608 1 25.191761371558794 7.556834837229161 250 0 0 0
5041 1 27.587185321889383 6.875473665268444 250 0 0 0
1695 1 -9.718490543940117 8.399359650547527 250 0 0 0
843 1 -6.681172836583562 9.021834853954116 250 0 0 0
2579 1 -4.127188233722384 8.286014089119508 250 0 0 0
2580 1 -5.138337093520544 9.308407399546777 250 0 0 0
4882 1 -2.550903174012843 8.408379747246764 250 0 0 0
4884 1 0.4583296274881741 8.82377954753818 250 0 0 0
3739 1 1.9088232461660757 9.194451036380093 250 0 0 0
3740 1 2.893202619519688 8.144449825676391 250 0 0 0
3749 1 4.367022274102255 8.572830239317666 250 0 0 0
3748 1 6.826992789486173 7.922990067175103 250 0 0 0
3751 1 7.345420222754919 9.330437261830463 250 0 0 0
5673 1 9.752712333662164 8.670402347202945 250 0 0 0
4854 1 12.115825190041962 8.088662807006939 250 0 0 0
5670 1 11.149132619102732 9.10795270152341 250 0 0 0
4865 1 13.476469146556807 8.588527501330558 250 0 0 0
4904 1 15.803228366934896 7.96533249834692 250 0 0 0
4905 1 16.43615093884658 9.242490204208355 250 0 0 0
4906 1 18.94628361995025 8.533844167091011 250 0 0 0
1495 1 21.429353395888484 7.891219103692692 250 0 0 0
3765 1 20.35609023941761 8.938767751161738 250 0 0 0
1494 1 22.80333061798353 8.251540396160873 250 0 0 0
2609 1 25.55262827399355 8.982002310683932 250 0 0 0
3971 1 27.942302810867233 8.302135058701895 250 0 0 0
2610 1 26.94200698819223 9.360208875928217 250 0 0 0
842 1 -9.169341922363992 9.744862567901894 250 0 0 0
296 1 -10.122628146983812 10.81183715858901 250 0 0 0
844 1 -7.659788608059815 10.059672268325428 250 0 0 0
2581 1 -4.62640371051058 10.624388146328778 250 0 0 0
2582 1 -3.0937829766964167 10.826216573100867 250 0 0 0
4881 1 -2.0293095203674527 9.727108997271818 250 0 0 0
4883 1 -0.5400496648520888 9.93189179477667 250 0 0 0
3741 1 2.3956822340229746 10.679359621820891 250 0 0 0
5689 1 4.871950836416181 10.009962171614179 250 0 0 0
5692 1 6.3947006449017465 10.398543484153056 250 0 0 0
5672 1 8.797473352461909 9.709989313135646 250 0 0 0
5671 1 11.631137526635259 10.549966570403322 250 0 0 0
5681 1 13.018917048368735 10.982948783693889 250 0 0 0
5682 1 13.994653594905492 9.962802961628825 250 0 0 0
5686 1 15.442003565981015 10.324113263235894 250 0 0 0
4903 1 17.86587069521718 9.520693746782017 250 0 0 0
4862 1 18.262898128737113 10.970730078104017 250 0 0 0
3766 1 20.69956107211717 10.334686493968363 250 0 0 0
1536 1 23.148513608569193 9.662760284977448 250 0 0 0
2616 1 22.105717118966577 10.705269839536212 250 0 0 0
1535 1 24.54009724011249 10.030336686883327 250 0 0 0
1534 1 27.315957758964938 10.789335089024668 250 0 0 0
295 1 -9.577979844673916 12.161543238944352 250 0 0 0
1693 1 -7.131463454836435 11.400784435990083 250 0 0 0
1694 1 -8.103612304280393 12.463722258935633 250 0 0 0
1691 1 -5.63072442816689 11.682268217981267 250 0 0 0
1681 1 -2.627739023166825 12.178633384477372 250 0 0 0
4887 1 -1.1677212148743985 12.455813486117401 250 0 0 0
4886 1 -0.10477792541426129 11.363944987073564 250 0 0 0
4889 1 1.3605447649767926 11.747128310658914 250 0 0 0
5688 1 3.881727555683036 11.072126394167503 250 0 0 0
5687 1 4.336721689607933 12.508929307088824 250 0 0 0
5691 1 6.861558044282545 11.812794629030053 250 0 0 0
3747 1 8.279147516910733 12.212675588938856 250 0 0 0
5675 1 9.28206216302342 11.172976177487984 250 0 0 0
5674 1 10.663858314744804 11.5922543373321 250 0 0 0
5684 1 13.451924685161995 12.39671405491264 250 0 0 0
5685 1 15.860341525893684 11.706396565044496 250 0 0 0
4859 1 17.26069963282998 12.038212025065166 250 0 0 0
4861 1 19.665799450625105 11.351713776928227 250 0 0 0
2615 1 22.470071140798243 12.109772849331412 250 0 0 0
2614 1 24.904577241969523 11.44189014622207 250 0 0 0
2612 1 23.87008231997192 12.479329757480079 250 0 0 0
2613 1 26.30371524225862 11.820216192999574 250 0 0 0
1692 1 -7.607975152185418 13.83176251666617 250 0 0 0
1689 1 -6.161312940707057 14.124081925381741 250 0 0 0
1690 1 -5.156039994529367 13.037819459600364 250 0 0 0
1683 1 -3.693057847607893 13.296387273576899 250 0 0 0
4885 1 -0.765351062896813 13.916054875270172 250 0 0 0
4890 1 1.7826146167471555 13.207480149632719 250 0 0 0
4894 1 3.267980781666622 13.59300051623233 250 0 0 0
5690 1 5.81908187256759 12.890274744264854 250 0 0 0
2562 1 8.699478684140994 13.69783508468177 250 0 0 0
2563 1 10.112070885485668 14.089434558890993 250 0 0 0
2620 1 11.086873808913527 13.034903341656609 250 0 0 0
3771 1 12.47390344468302 13.444354465929624 250 0 0 0
5683 1 14.860948399477989 12.768472421507346 250 0 0 0
3772 1 15.260740493335485 14.182974632836206 250 0 0 0
4863 1 17.649809879634013 13.46276276129311 250 0 0 0
4860 1 20.047461642248795 12.773192327638478 250 0 0 0
4864 1 19.043379576751413 13.828212911801662 250 0 0 0
3767 1 21.447607835598067 13.146151885540897 250 0 0 0
2611 1 24.23885340449001 13.886093070178145 250 0 0 0
3759 1 26.67688193755651 13.224502343725995 250 0 0 0
3760 1 28.089238800711474 13.613186747807825 250 0 0 0
1687 1 -10.007981273181308 14.605906151947321 250 0 0 0
1686 1 -8.58009410557105 14.912143868966863 250 0 0 0
2591 1 -5.737386516159269 15.518790470486621 250 0 0 0
1684 1 -3.2674902385403803 14.692266335906918 250 0 0 0
1682 1 -1.8256889960380789 15.013671420371494 250 0 0 0
4888 1 0.7107845532828094 14.296369189723068 250 0 0 0
2597 1 1.117502236554162 15.771162041268287 250 0 0 0
4893 1 3.676472097454339 15.066242856835007 250 0 0 0
4891 1 5.15853729944718 15.451668345859908 250 0 0 0
4892 1 6.229431518199338 14.365058466292039 250 0 0 0
777 1 7.687382700007458 14.764973546479759 250 0 0 0
1521 1 10.52499706972953 15.563389806186246 250 0 0 0
3774 1 12.884510829039803 14.887527860839446 250 0 0 0
3773 1 14.276355721117234 15.258009395578974 250 0 0 0
2617 1 16.653989146455906 14.534079146633617 250 0 0 0
3770 1 19.42506043712013 15.24852907376086 250 0 0 0
3769 1 20.81893022557698 15.61289409910811 250 0 0 0
3768 1 21.82642474737137 14.562628017973376 250 0 0 0
2560 1 23.223973391974752 14.931996331036288 250 0 0 0
3762 1 25.634049860026895 14.253160275544019 250 0 0 0
3763 1 25.993561212072073 15.655208934633048 250 0 0 0
1688 1 -9.146644337610022 17.406545209009533 250 0 0 0
1685 1 -8.151633910900678 16.314708540607796 250 0 0 0
2594 1 -6.74390990884511 16.624535875226318 250 0 0 0
2592 1 -4.3149406772993375 15.814390277239994 250 0 0 0
2593 1 -3.920043024512689 17.237119352332016 250 0 0 0
1529 1 -1.431840874352369 16.480754698675177 250 0 0 0
779 1 0.0430716910925793 16.862114913357342 250 0 0 0
2598 1 2.6006969051225965 16.156399993446044 250 0 0 0
3733 1 5.566505447709738 16.928153143533827 250 0 0 0
3734 1 7.044606073556215 17.313661543418608 250 0 0 0
778 1 8.09276329759236 16.2244880403738 250 0 0 0
776 1 9.513726128033637 16.62332644592335 250 0 0 0
2555 1 11.909557219977678 15.958567674761897 250 0 0 0
3704 1 12.31348692671293 17.40360157976041 250 0 0 0
2554 1 14.673711149436523 16.6853252211022 250 0 0 0
2559 1 16.063256186415735 17.04111748242892 250 0 0 0
2618 1 17.0413197567323 15.95979290876251 250 0 0 0
2619 1 18.42925004013917 16.31763262280972 250 0 0 0
2561 1 21.1941667784813 17.027563407375872 250 0 0 0
4779 1 22.587432901747643 17.389104875864216 250 0 0 0
4780 1 23.59896840647314 16.34804779617049 250 0 0 0
4781 1 24.991665147904133 16.716999061099816 250 0 0 0
3764 1 27.373414414340594 16.01487922220027 250 0 0 0
840 1 -8.79864071857055 18.811275693735386 250 0 0 0
2595 1 -6.3708468406768315 18.038804937834573 250 0 0 0
2596 1 -4.9635768118910475 18.35769220561383 250 0 0 0
1530 1 -2.4882539128611314 17.578862055628424 250 0 0 0
1525 1 0.4490981346945486 18.337975730258343 250 0 0 0
2575 1 1.9322381719078308 18.72320986251604 250 0 0 0
2574 1 3.0083483606828976 17.632647641734245 250 0 0 0
3736 1 4.491811414052734 18.01808874592725 250 0 0 0
3735 1 7.453988698010748 18.793082064151267 250 0 0 0
1522 1 9.928292859683424 18.114312575551267 250 0 0 0
3703 1 11.345353644658632 18.485331136810405 250 0 0 0
3701 1 13.706494392379936 17.769669806674226 250 0 0 0
2558 1 16.461640921322353 18.47524386617625 250 0 0 0
2557 1 17.839489016166198 18.832577901031573 250 0 0 0
2556 1 18.810113822668374 17.74351754271555 250 0 0 0
1520 1 20.191195191314755 18.096540049038833 250 0 0 0
4778 1 22.948311396007313 18.79460849673271 250 0 0 0
4777 1 25.353781617084678 18.14319513457655 250 0 0 0
3621 1 27.66979081960745 17.41427733314675 250 0 0 0
3620 1 26.73279261807901 18.511386333289547 250 0 0 0
841 1 -9.855846590291865 19.865167907691898 250 0 0 0
1674 1 -7.39692729182053 19.141036859046665 250 0 0 0
1680 1 -7.043592997648681 20.55568193140656 250 0 0 0
1673 1 -4.585101796949052 19.791888101222874 250 0 0 0
839 1 -3.155879494432945 20.143843099009025 250 0 0 0
838 1 -2.099569689508968 19.0470398240413 250 0 0 0
1526 1 -0.6252395726899778 19.42903040570575 250 0 0 0
2576 1 2.3398261223090535 20.199220776589872 250 0 0 0
4873 1 3.8237207276408274 20.58404857678805 250 0 0 0
4878 1 4.899587263988968 19.49435979897599 250 0 0 0
4877 1 6.381981939144864 19.88006454261104 250 0 0 0
2566 1 8.918257019293232 19.190056249461623 250 0 0 0
3706 1 11.786996740242053 19.96557313489951 250 0 0 0
3705 1 13.186840697523172 20.306849966255164 250 0 0 0
3702 1 14.127261223735244 19.207561702464197 250 0 0 0
1519 1 15.508661227710526 19.565946935430734 250 0 0 0
5900 1 18.215634252358452 20.278339954828322 250 0 0 0
6234 1 20.552406196373006 19.52116455431438 250 0 0 0
6235 1 21.926759699953585 19.86062645688256 250 0 0 0
4776 1 24.342422645862648 19.153796007459036 250 0 0 0
3627 1 24.70061980849251 20.53901975422746 250 0 0 0
3624 1 27.197151156026003 19.97421144571317 250 0 0 0
1675 1 -9.519686544840091 21.26179627940878 250 0 0 0
1678 1 -8.100089766277199 21.619484293686693 250 0 0 0
1679 1 -5.635610045503951 20.89764139511343 250 0 0 0
2818 1 -2.7696276382481497 21.6091870632563 250 0 0 0
5816 1 -1.2929020746967173 21.99194344423337 250 0 0 0
5815 1 -0.21936906369931583 20.903874078994374 250 0 0 0
5814 1 1.263480535076737 21.28837903852277 250 0 0 0
4875 1 4.230106231720629 22.05735717196413 250 0 0 0
4874 1 6.790564971708167 21.35549879785506 250 0 0 0
3726 1 8.271528849415706 21.740776580962443 250 0 0 0
2567 1 9.338910207622837 20.656024628756196 250 0 0 0
2564 1 10.795636167419033 21.049868205212906 250 0 0 0
3710 1 13.58758705378587 21.773467675008376 250 0 0 0
3709 1 14.955720942369878 22.13230925077685 250 0 0 0
1518 1 15.899820285028024 21.025011574101555 250 0 0 0
5901 1 17.267051750617185 21.383689017229404 250 0 0 0
6233 1 19.58516147028007 20.626900124103337 250 0 0 0
6428 1 19.943425010736927 22.071536720654397 250 0 0 0
6353 1 22.26824077218898 21.27165127345386 250 0 0 0
6352 1 23.635156499418645 21.585013101304245 250 0 0 0
3629 1 26.149144092287813 20.909076997458108 250 0 0 0
1677 1 -7.7507126908459 23.02908351678871 250 0 0 0
4019 1 -6.332586523392313 23.398207249078503 250 0 0 0
4020 1 -5.263003152419372 22.335320784694773 250 0 0 0
4021 1 -3.8323743175713454 22.6883987995652 250 0 0 0
5818 1 -0.8836271950586876 23.45351641544441 250 0 0 0
5817 1 1.6697760158063106 22.758411645947195 250 0 0 0
4022 1 3.1507352425268422 23.13224949240988 250 0 0 0
4876 1 5.714889621377886 22.44306319586954 250 0 0 0
3725 1 8.674604250451894 23.208670982335025 250 0 0 0
1523 1 10.138405649413212 23.57631339002999 250 0 0 0
2565 1 11.187099901578549 22.500403217343372 250 0 0 0
3708 1 12.59126310726061 22.870373263133075 250 0 0 0
3707 1 15.299880254031143 23.589620530500213 250 0 0 0
5899 1 17.62989915491571 22.840811755510046 250 0 0 0
6427 1 19.00136874612498 23.190871818969445 250 0 0 0
6429 1 21.310343389398625 22.40225347253397 250 0 0 0
6354 1 23.91357255500192 22.97732165479933 250 0 0 0
3628 1 26.389608407736695 22.27041556404922 250 0 0 0
5185 1 25.245936598827438 23.26583166030068 250 0 0 0
3625 1 27.60353215648034 22.78332522769229 250 0 0 0
1676 1 -8.833852610657855 24.0509980709046 250 0 0 0
6344 1 -5.969636746884033 24.816659610564173 250 0 0 0
6342 1 -4.5168476653888305 25.171196235525777 250 0 0 0
4018 1 -3.4450281407292174 24.115952430300474 250 0 0 0
5084 1 -1.9592077042686682 24.49902327881141 250 0 0 0
5819 1 0.5893496818275729 23.830632262409505 250 0 0 0
5811 1 0.9772958063744982 25.262104095754733 250 0 0 0
4023 1 3.5470623756301793 24.570975068807048 250 0 0 0
2573 1 5.032433746146357 24.958142319332424 250 0 0 0
3728 1 6.120973351824211 23.90772902956891 250 0 0 0
3727 1 7.590673889341949 24.281536532985164 250 0 0 0
2569 1 10.471875769647728 25.012476989757268 250 0 0 0
3713 1 12.930960374747546 24.327644234008677 250 0 0 0
3714 1 14.30575176900545 24.688307651100345 250 0 0 0
5182 1 16.671306185500967 23.94424910724511 250 0 0 0
5183 1 17.033952998801137 25.381207202503766 250 0 0 0
6424 1 19.37873197826312 24.642171394461165 250 0 0 0
6426 1 21.658192407459612 23.846212893030803 250 0 0 0
6425 1 20.755991644297875 24.981773542385664 250 0 0 0
6414 1 23.016748553096875 24.148852527656988 250 0 0 0
5186 1 25.628305340107175 24.585938591522428 250 0 0 0
5177 1 26.8955827870044 24.760109561176407 250 0 0 0
2817 1 -9.56374354812211 26.475089184695175 250 0 0 0
1672 1 -8.482781752082992 25.46253372661263 250 0 0 0
6346 1 -7.04718736806233 25.841242375440213 250 0 0 0
6343 1 -4.143908150064537 26.574906478264126 250 0 0 0
6200 1 -2.697407533967912 26.942381683040583 250 0 0 0
5083 1 -1.5960057521681854 25.92458534179652 250 0 0 0
5809 1 -0.12631702442915535 26.309707706663204 250 0 0 0
5812 1 2.446968828817322 25.631526437950996 250 0 0 0
3730 1 5.360555932225065 26.388233744306543 250 0 0 0
3732 1 6.787320201547751 26.786380806889714 250 0 0 0
2572 1 7.931627763836646 25.71623836806399 250 0 0 0
2570 1 9.34051500486211 26.092999329872143 250 0 0 0
3711 1 11.861614077645168 25.40111561830134 250 0 0 0
4869 1 12.16092365172406 26.8175984887022 250 0 0 0
3712 1 14.632048810826499 26.110370035197107 250 0 0 0
2568 1 16.03032581824054 26.45614139287408 250 0 0 0
5184 1 18.426071364770667 25.734210476857996 250 0 0 0
6415 1 21.21345164074864 26.43903982338449 250 0 0 0
6416 1 22.617822349391822 26.747362831224052 250 0 0 0
6417 1 23.46473035278342 25.590959884485432 250 0 0 0
5187 1 24.842859328594475 25.761857784620894 250 0 0 0
5178 1 27.797291858679827 25.66074294745486 250 0 0 0
6114 1 26.965893323391725 26.924356571521407 250 0 0 0
5092 1 -9.223614924836282 27.892273590942388 250 0 0 0
5096 1 -7.798037620010988 28.268144671363512 250 0 0 0
6347 1 -6.694831399564654 27.245033641406593 250 0 0 0
6345 1 -5.252421763541932 27.606505126886844 250 0 0 0
6201 1 -2.3540717218963088 28.351353145962225 250 0 0 0
5808 1 0.22218252857209891 27.714511907570074 250 0 0 0
5810 1 1.6725427781782056 28.085422915531154 250 0 0 0
5813 1 2.7968372997366924 27.045489655495732 250 0 0 0
4025 1 4.230353159760573 27.42706105147857 250 0 0 0
3731 1 7.097818273096092 28.204236684459925 250 0 0 0
1524 1 8.522827864119556 28.556873335905564 250 0 0 0
2571 1 9.645691510820999 27.507459623507255 250 0 0 0
4872 1 11.065028468532311 27.855420999835676 250 0 0 0
4868 1 13.57396269959721 27.168099492454978 250 0 0 0
4867 1 13.93386563336098 28.56135508882189 250 0 0 0
5884 1 16.414995775316566 27.860233817406073 250 0 0 0
5886 1 17.842361973189238 28.207929045848545 250 0 0 0
4149 1 18.84793932549476 27.157965510995368 250 0 0 0
4150 1 20.27463362081254 27.515488006964382 250 0 0 0
5180 1 23.206980704944517 28.181402549133033 250 0 0 0
6119 1 24.695521719507248 28.26460601506634 250 0 0 0
6117 1 25.483329351559032 27.02837947203422 250 0 0 0
6115 1 27.783410529699015 28.029955985776084 250 0 0 0
5097 1 -7.470963076911468 29.67568454387362 250 0 0 0
5831 1 -6.042223909040085 30.034101991947665 250 0 0 0
6202 1 -4.915611461593892 29.007879660843724 250 0 0 0
6199 1 -3.4775150115460844 29.36909408711658 250 0 0 0
4030 1 -0.9024631088394562 28.727305090660007 250 0 0 0
4031 1 -0.5745457590872446 30.1320262923639 250 0 0 0
5087 1 2.002450942986097 29.501200706517075 250 0 0 0
5086 1 3.4396174294528503 29.89118694080257 250 0 0 0
4024 1 4.551947690759817 28.85794285641378 250 0 0 0
3729 1 5.979504620396959 29.245075333907504 250 0 0 0
3722 1 8.86643608807291 29.955437330487683 250 0 0 0
4871 1 11.412320155151718 29.250267692150555 250 0 0 0
4870 1 12.861847375074762 29.586933551523938 250 0 0 0
5882 1 15.371863033095952 28.90093764459849 250 0 0 0
5887 1 18.262155812749036 29.595919043246273 250 0 0 0
4141 1 19.710971932767443 29.948667373887588 250 0 0 0
2870 1 20.743027859179186 28.908056305269685 250 0 0 0
5179 1 22.243306291167 29.266968412741193 250 0 0 0
6118 1 25.589546807076175 29.39847841673395 250 0 0 0
6116 1 27.123641887207604 29.277584147569502 250 0 0 0
5093 1 -10.000495405854263 30.34345689494978 250 0 0 0
5094 1 -8.588424683104881 30.71224292158278 250 0 0 0
5830 1 -5.72465501979872 31.434634822384684 250 0 0 0
5832 1 -4.295342212110689 31.79026003613463 250 0 0 0
5833 1 -3.1555320295498075 30.771204690289178 250 0 0 0
5822 1 -1.7162492490004182 31.1398912280923 250 0 0 0
5089 1 0.8723431942454146 30.510889631856497 250 0 0 0
5085 1 3.766568294488057 31.319259169898608 250 0 0 0
2863 1 5.208099580953795 31.711206791921747 250 0 0 0
2862 1 6.315998137582361 30.667708486242113 250 0 0 0
3723 1 7.757350148732682 31.002822636340653 250 0 0 0
3719 1 10.320524742989775 30.279054247530556 250 0 0 0
3720 1 10.711215127139216 31.654355589296017 250 0 0 0
3715 1 13.255968846084473 30.96442659656267 250 0 0 0
5173 1 14.719767236044595 31.30758347110531 250 0 0 0
5883 1 15.770823495392289 30.283441150607498 250 0 0 0
5885 1 17.219841205774845 30.631425969767946 250 0 0 0
5176 1 20.06904131895193 31.341012161549234 250 0 0 0
5175 1 21.45337467435446 31.73052220242477 250 0 0 0
5181 1 22.54518916309585 30.6739850089306 250 0 0 0
5894 1 24.93592059579714 30.52335596548801 250 0 0 0
5895 1 23.840154778557743 31.242581555402953 250 0 0 0
5640 1 28.023598677598912 30.384467533037462 250 0 0 0
4800 1 27.528358003955887 31.701701897882018 250 0 0 0
4027 1 -9.409443701411423 33.171440529438925 250 0 0 0
4028 1 -8.279750529765561 32.11948035169214 250 0 0 0
4029 1 -6.8605944155352745 32.468766155075194 250 0 0 0
5825 1 -3.9880322629109806 33.18986455361679 250 0 0 0
5823 1 -1.4082689644295239 32.54144959388315 250 0 0 0
5091 1 0.024881608794070385 32.918073554163634 250 0 0 0
5090 1 1.1854217618920926 31.920284670690794 250 0 0 0
5088 1 2.630864731155056 32.31460556537645 250 0 0 0
2864 1 5.5513963429719855 33.13074643100192 250 0 0 0
3724 1 8.142540433536455 32.38446411757496 250 0 0 0
3721 1 9.636869386225118 32.6801864048425 250 0 0 0
3717 1 12.200282669575357 31.983643972176495 250 0 0 0
3716 1 12.670133555538142 33.33682670662345 250 0 0 0
5174 1 15.145382032129085 32.682469609000236 250 0 0 0
5890 1 16.584509316030925 33.04845599681827 250 0 0 0
5888 1 17.61360146046492 32.01831511211295 250 0 0 0
5889 1 19.02799685034486 32.387577540138665 250 0 0 0
5635 1 21.79121721814575 33.20576268454867 250 0 0 0
5896 1 24.110311738620098 32.725267693838646 250 0 0 0
5897 1 26.30548662865834 32.11602997161487 250 0 0 0
5898 1 25.4836362746018 33.12810378581484 250 0 0 0
6196 1 -9.109812719966168 34.573884994963294 250 0 0 0
6194 1 -7.692300713486644 34.90867014005549 250 0 0 0
5095 1 -6.553617210986444 33.866665627968466 250 0 0 0
5820 1 -5.130597224538071 34.21668585332637 250 0 0 0
5824 1 -2.562154909158932 33.55473193898602 250 0 0 0
6191 1 -2.2749070427744287 34.95741292075633 250 0 0 0
5877 1 0.30712184830143485 34.32072588828686 250 0 0 0
5878 1 1.7274977798671372 34.70900245593939 250 0 0 0
2860 1 2.9185040702639222 33.72037114794495 250 0 0 0
2819 1 4.331250750091677 34.11244821723304 250 0 0 0
2861 1 7.064781010716999 33.413307567010804 250 0 0 0
5205 1 7.40632902776961 34.678405867248195 250 0 0 0
4162 1 10.161324887631855 33.97091542747323 250 0 0 0
4161 1 11.690409761089201 34.35770920501093 250 0 0 0
3718 1 14.132503789033946 33.70445899313246 250 0 0 0
5891 1 17.010903972527583 34.45338381591483 250 0 0 0
5892 1 18.41899855373461 34.847277185935056 250 0 0 0
5893 1 19.415414896533253 33.815307448782356 250 0 0 0
5634 1 20.801434907592625 34.22747145075402 250 0 0 0
5633 1 23.13434535705685 33.69810303427057 250 0 0 0
4793 1 25.97159720721702 34.509696410836234 250 0 0 0
3637 1 28.12709811424965 34.04173530704472 250 0 0 0
6195 1 -7.38321131912731 36.30168027732732 250 0 0 0
5821 1 -4.8313710587688 35.616516956863904 250 0 0 0
6188 1 -3.4200633313443816 35.986663924260554 250 0 0 0
6193 1 -0.8694819205617516 35.34176591915794 250 0 0 0
5879 1 1.8579908280460873 36.094136022735945 250 0 0 0
5930 1 4.591905795288909 35.39640469011523 250 0 0 0
6258 1 5.527094526610314 36.28906462442792 250 0 0 0
6257 1 6.992437263466471 35.90381197246253 250 0 0 0
5206 1 9.509223852101474 35.13561163792623 250 0 0 0
5207 1 9.88001718311885 36.44161768934893 250 0 0 0
4164 1 12.212965557941734 35.74619953345318 250 0 0 0
4163 1 13.632136858038693 36.132184442103096 250 0 0 0
2866 1 14.602458607755114 35.095839800541995 250 0 0 0
2867 1 16.020586060524224 35.485275597993436 250 0 0 0
2868 1 18.850809744903167 36.26990078388819 250 0 0 0
5632 1 21.23303657289869 35.66028324185659 250 0 0 0
5630 1 22.619796563194527 36.11094694123338 250 0 0 0
5631 1 23.604180039426275 35.10794952165756 250 0 0 0
4794 1 25.01650388969448 35.53664153324192 250 0 0 0
3638 1 27.842432612926448 36.46512924616618 250 0 0 0
3636 1 27.324237174401805 35.05643179687659 250 0 0 0
6198 1 -9.934596735723334 37.02538497209369 250 0 0 0
6197 1 -8.512489546347357 37.34640843324809 250 0 0 0