Xgen2g_56_210x70lammps.data (written by ASE)

6459	atoms
1	atom types
0.0	210	xlo xhi
0.0	70	ylo yhi
0.0	10	zlo zhi


Atoms

	1	1 91.4240304 8.78629797 5
	2	1 95.6032697 7.20422684 5
	3	1 96.1043837 8.52262637 5
	4	1 62.5857547 55.9052549 5
	5	1 143.588115 6.06774359 5
	6	1 155.893232 0.705838878 5
	7	1 96.5296786 6.18120014 5
	8	1 94.404465 6.98451369 5
	9	1 92.2906028 7.78165209 5
	10	1 93.5168228 7.99002236 5
	11	1 95.0482924 23.5301549 5
	12	1 93.9616573 24.464888 5
	13	1 92.9081675 20.6242288 5
	14	1 93.3119518 21.9137353 5
	15	1 94.5154085 22.1436834 5
	16	1 94.0052843 9.29356293 5
	17	1 95.1833281 9.50353974 5
	18	1 104.734465 5.66882748 5
	19	1 103.624894 5.14660187 5
	20	1 95.674493 10.8537162 5
	21	1 168.553789 21.0036632 5
	22	1 139.333305 18.3877871 5
	23	1 131.078904 15.0182542 5
	24	1 129.828605 13.7093216 5
	25	1 132.491542 17.1640338 5
	26	1 132.915713 18.8108428 5
	27	1 133.889082 19.1536191 5
	28	1 114.97202 6.06015727 5
	29	1 119.790806 3.16192992 5
	30	1 120.057334 5.46021687 5
	31	1 119.278784 4.63821949 5
	32	1 126.342683 10.6842546 5
	33	1 63.9244526 55.5288992 5
	34	1 175.731479 52.9904114 5
	35	1 149.129628 49.0119053 5
	36	1 148.73685 47.6929015 5
	37	1 149.934081 51.5380245 5
	38	1 154.418354 68.9704633 5
	39	1 139.383349 0.609649164 5
	40	1 138.729516 2.62865516 5
	41	1 138.601386 1.38107294 5
	42	1 136.832613 14.3823051 5
	43	1 141.511954 16.8815807 5
	44	1 141.354252 10.2092668 5
	45	1 156.061875 1.88819301 5
	46	1 156.964436 9.83946055 5
	47	1 143.451026 4.76739126 5
	48	1 154.597206 0.161048288 5
	49	1 153.545299 1.06510154 5
	50	1 152.288907 0.533433281 5
	51	1 147.51191 0.152044294 5
	52	1 147.743756 1.47651902 5
	53	1 68.3197546 4.40625157 5
	54	1 67.4188992 3.9302343 5
	55	1 97.7841411 6.47889678 5
	56	1 110.292334 4.05918164 5
	57	1 110.05876 2.66126551 5
	58	1 69.5823284 3.58607337 5
	59	1 129.026977 27.0568122 5
	60	1 131.087826 25.5536024 5
	61	1 130.851087 26.9544243 5
	62	1 132.083012 25.0333894 5
	63	1 90.7505748 30.7515814 5
	64	1 92.3206567 29.7416051 5
	65	1 93.3359981 30.5397528 5
	66	1 124.37571 33.2277177 5
	67	1 131.506875 32.1548934 5
	68	1 146.485798 51.860547 5
	69	1 148.275996 49.9232125 5
	70	1 148.662016 51.2550605 5
	71	1 147.777752 52.1610383 5
	72	1 145.600261 52.7682349 5
	73	1 141.562213 55.1821276 5
	74	1 144.319954 52.4591412 5
	75	1 143.421219 53.3706766 5
	76	1 133.181116 62.7648724 5
	77	1 134.156907 61.9675066 5
	78	1 135.440011 69.8758898 5
	79	1 133.326142 64.0744705 5
	80	1 134.570277 64.6037567 5
	81	1 79.0817719 68.4897728 5
	82	1 93.4616255 18.4808773 5
	83	1 93.80233 19.6356844 5
	84	1 95.7973721 23.7056002 5
	85	1 97.0535703 22.6096166 5
	86	1 98.2481948 23.2775758 5
	87	1 96.4471698 24.9652735 5
	88	1 97.8705908 24.9691114 5
	89	1 94.879993 15.221 5
	90	1 96.1918398 15.5382046 5
	91	1 96.5762589 16.6908808 5
	92	1 95.6141049 17.7429666 5
	93	1 93.9702138 16.2772761 5
	94	1 94.3687948 17.4579258 5
	95	1 91.912669 10.068544 5
	96	1 93.1069766 10.2857723 5
	97	1 102.481768 5.99957918 5
	98	1 100.274032 7.28143745 5
	99	1 105.89265 4.82548819 5
	100	1 103.433318 3.92592769 5
	101	1 169.69063 32.6523176 5
	102	1 127.382992 2.26967568 5
	103	1 133.256889 2.78068181 5
	104	1 134.492482 4.7658526 5
	105	1 133.350139 4.18806824 5
	106	1 124.26591 7.80129409 5
	107	1 123.902465 10.452126 5
	108	1 125.352484 8.67743304 5
	109	1 125.237868 9.79973576 5
	110	1 128.268171 18.137251 5
	111	1 128.717675 11.843984 5
	112	1 129.97232 12.8829375 5
	113	1 131.931024 23.4586173 5
	114	1 135.173896 21.1597982 5
	115	1 134.087659 20.6967503 5
	116	1 132.96521 21.4131022 5
	117	1 133.079216 22.7577804 5
	118	1 138.360995 19.0086257 5
	119	1 136.18906 20.5125275 5
	120	1 131.769386 17.0015938 5
	121	1 130.936609 15.5105009 5
	122	1 130.486551 18.0580774 5
	123	1 129.376451 17.4576536 5
	124	1 129.34914 16.2240946 5
	125	1 134.867031 18.5128323 5
	126	1 136.139108 19.0613679 5
	127	1 137.094775 18.4367899 5
	128	1 137.061474 17.0207985 5
	129	1 135.742661 15.0592088 5
	130	1 135.769028 16.4215884 5
	131	1 134.826952 17.0587779 5
	132	1 133.455473 16.4777329 5
	133	1 134.527934 13.0581019 5
	134	1 132.213214 14.4222983 5
	135	1 133.440933 15.0893437 5
	136	1 134.538399 14.422921 5
	137	1 131.167159 10.9039066 5
	138	1 131.086984 12.2654336 5
	139	1 132.313855 12.9750721 5
	140	1 133.359186 12.4134611 5
	141	1 164.362393 25.3453059 5
	142	1 164.619688 27.9663711 5
	143	1 168.455432 19.667378 5
	144	1 141.57061 18.3142375 5
	145	1 140.572928 18.9550274 5
	146	1 117.399667 5.92999948 5
	147	1 118.224452 4.73850872 5
	148	1 115.869998 5.35365856 5
	149	1 127.455351 12.577093 5
	150	1 126.275735 11.6886059 5
	151	1 113.992183 8.1782666 5
	152	1 115.131982 7.33030426 5
	153	1 117.602079 6.72967877 5
	154	1 116.276379 7.87040885 5
	155	1 116.523702 9.01504832 5
	156	1 121.188506 2.96741647 5
	157	1 126.674712 0.113246899 5
	158	1 128.75802 0.516811021 5
	159	1 127.614475 0.897245878 5
	160	1 70.5921104 57.0602782 5
	161	1 68.6419578 55.2300611 5
	162	1 79.0022405 65.8318812 5
	163	1 79.0006378 64.5466395 5
	164	1 118.338823 35.5979288 5
	165	1 78.0214289 63.8279046 5
	166	1 74.9144592 60.0510863 5
	167	1 76.1923104 59.3671077 5
	168	1 76.2985037 58.2701411 5
	169	1 177.365566 47.0165128 5
	170	1 180.036773 42.151947 5
	171	1 186.338146 43.1558593 5
	172	1 185.302575 43.9652015 5
	173	1 169.969281 58.7807296 5
	174	1 169.976651 57.5074001 5
	175	1 175.798567 51.5644612 5
	176	1 181.026363 60.4430133 5
	177	1 177.685094 68.5244879 5
	178	1 177.68824 67.3813081 5
	179	1 171.19604 56.8275916 5
	180	1 175.889606 55.6256312 5
	181	1 176.400095 69.2502161 5
	182	1 182.830401 55.0253952 5
	183	1 160.500794 69.8626065 5
	184	1 157.072652 64.0007117 5
	185	1 150.832442 50.619119 5
	186	1 151.309099 48.3601427 5
	187	1 150.436285 49.2855046 5
	188	1 148.139059 53.4781258 5
	189	1 149.757928 55.1122225 5
	190	1 150.327883 52.8896814 5
	191	1 149.411774 53.8006722 5
	192	1 150.400979 57.6953128 5
	193	1 159.545767 59.1692313 5
	194	1 171.060481 59.4817898 5
	195	1 155.435412 68.1151617 5
	196	1 155.268831 66.8515123 5
	197	1 156.184312 66.0972215 5
	198	1 154.883231 64.2287114 5
	199	1 156.035295 64.7110491 5
	200	1 137.692358 3.36441283 5
	201	1 135.324825 4.37451934 5
	202	1 135.633768 11.0388229 5
	203	1 135.645032 12.4051193 5
	204	1 136.801193 13.0330557 5
	205	1 136.59901 6.41042554 5
	206	1 137.634631 4.45553581 5
	207	1 136.655615 5.07063351 5
	208	1 137.831856 7.07983856 5
	209	1 138.908079 5.19139808 5
	210	1 138.92927 6.37828179 5
	211	1 140.113581 7.04034975 5
	212	1 141.274582 8.90065562 5
	213	1 140.173278 8.28444 5
	214	1 142.509262 8.14268709 5
	215	1 142.398921 6.85606168 5
	216	1 141.284058 6.27140919 5
	217	1 151.369971 11.9494526 5
	218	1 148.093276 8.30570475 5
	219	1 141.381202 14.2415885 5
	220	1 141.31353 12.8538871 5
	221	1 139.296266 16.9626593 5
	222	1 140.323443 16.3144757 5
	223	1 138.057804 16.3719663 5
	224	1 138.021434 14.9995197 5
	225	1 139.11606 14.3232493 5
	226	1 140.272013 14.9146169 5
	227	1 142.403605 10.7864506 5
	228	1 143.537928 12.714641 5
	229	1 142.488962 12.1620774 5
	230	1 158.675497 4.18889339 5
	231	1 157.317786 2.42515896 5
	232	1 157.492467 3.68436217 5
	233	1 158.830885 5.58095247 5
	234	1 159.027132 8.21138364 5
	235	1 155.023575 2.7534572 5
	236	1 153.727925 2.20662278 5
	237	1 152.682299 3.13444738 5
	238	1 134.3918 0.659959856 5
	239	1 136.936761 0.896686024 5
	240	1 136.70263 0.322101867 5
	241	1 134.521948 2.04582781 5
	242	1 135.63439 2.65037854 5
	243	1 136.24464 2.43849261 5
	244	1 141.720782 0.324247107 5
	245	1 140.8065 1.11306383 5
	246	1 158.214504 0.369604485 5
	247	1 158.415466 1.54581875 5
	248	1 150.005178 1.03638339 5
	249	1 151.158406 1.52304361 5
	250	1 151.39501 2.58689912 5
	251	1 148.852713 1.92723279 5
	252	1 150.231403 3.72633233 5
	253	1 149.115554 3.25934058 5
	254	1 198.656406 38.1855233 5
	255	1 192.462671 46.9994204 5
	256	1 193.667243 46.1239233 5
	257	1 188.232283 38.8875479 5
	258	1 192.533013 36.7276282 5
	259	1 193.082146 40.8431013 5
	260	1 194.136286 40.0334395 5
	261	1 193.983193 38.6981124 5
	262	1 192.690229 38.1940218 5
	263	1 185.849069 39.2681663 5
	264	1 186.164062 41.9103983 5
	265	1 187.278159 41.0187548 5
	266	1 187.08627 39.8247282 5
	267	1 178.288961 48.3790568 5
	268	1 181.698658 54.450595 5
	269	1 180.506825 55.3553561 5
	270	1 206.452105 42.4448 5
	271	1 163.106154 3.70011096 5
	272	1 162.898092 1.0443421 5
	273	1 59.9364325 56.2391374 5
	274	1 92.2510706 28.859963 5
	275	1 91.0981601 28.0473757 5
	276	1 91.0828006 27.1256535 5
	277	1 92.1377581 26.2481013 5
	278	1 119.026222 2.27576224 5
	279	1 90.1917178 8.58686462 5
	280	1 89.3375445 9.59668964 5
	281	1 89.7003922 7.33043823 5
	282	1 68.5125616 5.75310179 5
	283	1 112.900545 7.71359828 5
	284	1 113.75177 5.56724767 5
	285	1 111.352764 4.50085783 5
	286	1 112.685215 6.35201584 5
	287	1 111.574795 5.90338958 5
	288	1 110.842261 0.437217298 5
	289	1 113.016994 0.122290655 5
	290	1 111.066745 1.8903595 5
	291	1 109.728266 0.0221373669 5
	292	1 69.3649123 2.16836628 5
	293	1 70.3537169 1.40270381 5
	294	1 93.9277311 5.71110301 5
	295	1 0.567849485 14.1799655 5
	296	1 0.165178875 12.9116924 5
	297	1 119.313333 46.6880541 5
	298	1 209.190933 58.6855237 5
	299	1 209.512281 59.9093713 5
	300	1 208.424974 60.9167388 5
	301	1 207.187966 60.4775867 5
	302	1 130.188077 46.5016275 5
	303	1 132.38071 50.8037003 5
	304	1 130.688186 46.9466518 5
	305	1 142.223534 37.1630184 5
	306	1 140.820603 36.8336973 5
	307	1 97.1218169 14.4599316 5
	308	1 96.7351945 13.2956545 5
	309	1 99.4074631 18.5738385 5
	310	1 98.1915581 18.2225588 5
	311	1 97.8103908 17.0207842 5
	312	1 122.356706 34.4820286 5
	313	1 123.745442 34.6100556 5
	314	1 124.271234 35.4681486 5
	315	1 124.171242 37.710604 5
	316	1 123.640181 36.6556502 5
	317	1 146.946596 49.6482417 5
	318	1 146.117186 50.5505148 5
	319	1 145.192682 48.0781431 5
	320	1 147.391691 47.4291077 5
	321	1 146.565737 48.3526756 5
	322	1 142.753599 55.5920808 5
	323	1 143.762977 54.6307354 5
	324	1 141.251943 53.972282 5
	325	1 142.183511 53.0569409 5
	326	1 146.333853 69.6808137 5
	327	1 136.096331 57.888192 5
	328	1 136.37406 60.4937878 5
	329	1 140.507962 56.1463907 5
	330	1 140.678632 57.1949984 5
	331	1 139.191002 55.5439708 5
	332	1 138.198685 56.3533291 5
	333	1 132.817168 60.1525649 5
	334	1 134.030503 60.7493746 5
	335	1 135.003001 58.6504313 5
	336	1 135.137544 59.9223938 5
	337	1 141.085817 59.8018118 5
	338	1 141.281171 60.8497298 5
	339	1 145.787653 58.8036095 5
	340	1 143.853667 68.7707851 5
	341	1 142.54504 68.245804 5
	342	1 141.70215 63.466913 5
	343	1 144.28511 64.0869194 5
	344	1 136.526172 61.6651667 5
	345	1 135.638976 63.7448576 5
	346	1 135.479174 62.534128 5
	347	1 135.191888 68.4689423 5
	348	1 134.74742 65.8548187 5
	349	1 135.99536 66.3845189 5
	350	1 136.205236 67.5984792 5
	351	1 133.829664 68.003979 5
	352	1 133.657588 66.7237954 5
	353	1 77.8222641 66.566402 5
	354	1 78.0260834 68.0403026 5
	355	1 95.4510378 21.1392964 5
	356	1 95.1461451 19.9929949 5
	357	1 97.7477251 20.6742942 5
	358	1 96.8722039 21.5822602 5
	359	1 97.1903417 19.2402582 5
	360	1 96.0590876 19.0141954 5
	361	1 108.988713 26.4224456 5
	362	1 109.799701 23.8224126 5
	363	1 95.7295316 26.1328686 5
	364	1 94.4684796 26.0081031 5
	365	1 93.6076943 26.8820246 5
	366	1 93.6998897 27.8265263 5
	367	1 91.4685439 12.3307076 5
	368	1 89.8333182 10.8621806 5
	369	1 91.0012959 11.088134 5
	370	1 94.8322884 11.7959622 5
	371	1 93.5809643 11.5785939 5
	372	1 94.4885803 14.0572297 5
	373	1 95.2754748 13.0850164 5
	374	1 93.1360913 13.7955959 5
	375	1 92.7052064 12.575933 5
	376	1 100.065713 5.86612211 5
	377	1 99.1454669 3.28096361 5
	378	1 101.018464 5.06383754 5
	379	1 98.7288365 5.49209354 5
	380	1 98.3714124 4.22750843 5
	381	1 101.64435 7.72330876 5
	382	1 102.485671 7.09512012 5
	383	1 109.149205 4.87035856 5
	384	1 108.0981 4.44341579 5
	385	1 106.949786 5.26997021 5
	386	1 107.843269 3.05567846 5
	387	1 108.923432 2.24605498 5
	388	1 107.53596 0.427184823 5
	389	1 108.66346 0.826747491 5
	390	1 102.465847 3.46564407 5
	391	1 99.9405346 3.26582306 5
	392	1 101.051827 4.47357557 5
	393	1 156.223276 34.3625759 5
	394	1 166.464479 35.9670479 5
	395	1 172.661187 38.6564268 5
	396	1 173.874497 39.2994673 5
	397	1 172.824119 41.3447202 5
	398	1 173.939593 40.629802 5
	399	1 162.92677 22.140845 5
	400	1 163.055602 23.4750305 5
	401	1 164.233951 24.0163298 5
	402	1 165.552711 25.8847537 5
	403	1 166.869535 27.7452536 5
	404	1 165.684334 27.2117255 5
	405	1 169.746548 21.5699501 5
	406	1 171.834295 31.220924 5
	407	1 179.871175 40.9417398 5
	408	1 178.660226 40.3640064 5
	409	1 181.018179 40.0538334 5
	410	1 176.154813 36.5377844 5
	411	1 176.229491 39.2136585 5
	412	1 174.970024 37.2825565 5
	413	1 175.023098 38.5548756 5
	414	1 172.626164 37.383146 5
	415	1 173.809633 36.6301332 5
	416	1 171.383874 36.669563 5
	417	1 129.800915 1.2205813 5
	418	1 132.232196 2.23388276 5
	419	1 133.13549 0.132501098 5
	420	1 131.030577 0.438116552 5
	421	1 132.076656 0.886433976 5
	422	1 128.926818 6.84848123 5
	423	1 126.622694 8.06950742 5
	424	1 128.490617 3.13080632 5
	425	1 128.480661 4.18325268 5
	426	1 129.828599 2.28840848 5
	427	1 130.957741 3.03388167 5
	428	1 131.156167 8.26276185 5
	429	1 130.016387 6.23739965 5
	430	1 131.168938 6.8550293 5
	431	1 132.249881 6.24554109 5
	432	1 132.240608 4.85757579 5
	433	1 130.982855 4.19539698 5
	434	1 130.026221 4.87022427 5
	435	1 122.807658 9.60182274 5
	436	1 122.181571 7.10700075 5
	437	1 123.345544 8.06245066 5
	438	1 126.084242 19.5054436 5
	439	1 128.816363 10.8733538 5
	440	1 130.004574 10.2071724 5
	441	1 127.641198 9.96118889 5
	442	1 127.716492 8.91643067 5
	443	1 130.029114 8.87526679 5
	444	1 128.960537 8.24518161 5
	445	1 135.288104 22.5999979 5
	446	1 134.163745 23.327966 5
	447	1 158.383495 22.5924233 5
	448	1 163.836858 17.4007227 5
	449	1 158.23306 19.9343463 5
	450	1 158.103132 18.5824444 5
	451	1 156.459592 26.9143997 5
	452	1 163.426826 27.4500347 5
	453	1 163.287749 26.1057442 5
	454	1 163.882587 31.5159036 5
	455	1 163.76074 30.0654247 5
	456	1 164.7675 29.350787 5
	457	1 164.920037 17.9333156 5
	458	1 167.279309 19.114682 5
	459	1 169.507623 18.9562489 5
	460	1 160.110837 7.52046857 5
	461	1 161.038678 5.36639324 5
	462	1 159.970814 6.06925711 5
	463	1 165.406013 5.02884151 5
	464	1 147.284611 19.9780404 5
	465	1 137.4153 21.0681038 5
	466	1 138.391188 20.464592 5
	467	1 154.766766 20.9555896 5
	468	1 155.924518 20.1612118 5
	469	1 157.079184 20.7094394 5
	470	1 157.22132 22.0680819 5
	471	1 154.046067 18.4436896 5
	472	1 152.719266 22.7537551 5
	473	1 155.418028 26.4658291 5
	474	1 155.985904 33.0797029 5
	475	1 112.505464 3.70554415 5
	476	1 113.571251 4.19848597 5
	477	1 112.327219 2.32656947 5
	478	1 113.163681 1.65057971 5
	479	1 127.395647 13.6131804 5
	480	1 128.455202 15.5515271 5
	481	1 128.495488 14.4393548 5
	482	1 119.88669 6.63776577 5
	483	1 118.591843 7.2716763 5
	484	1 121.034366 7.59811997 5
	485	1 125.406688 0.489920902 5
	486	1 121.844912 3.69992618 5
	487	1 122.442585 5.87668147 5
	488	1 121.59836 5.03402823 5
	489	1 121.539574 1.58247585 5
	490	1 122.851299 1.23794855 5
	491	1 66.1434725 56.064135 5
	492	1 64.839597 56.4471359 5
	493	1 69.3273468 57.4654415 5
	494	1 68.3521105 56.6806537 5
	495	1 67.8212661 59.363284 5
	496	1 69.0650527 59.0047074 5
	497	1 66.811472 58.1953029 5
	498	1 67.1451619 57.0515207 5
	499	1 66.4626206 54.7856458 5
	500	1 67.6539542 54.4227725 5
	501	1 67.9504515 52.9850161 5
	502	1 70.7923477 55.5968853 5
	503	1 69.8382117 54.8505835 5
	504	1 72.054371 55.1607509 5
	505	1 72.2560817 53.7497567 5
	506	1 80.2111732 67.7975699 5
	507	1 80.1681378 66.5189878 5
	508	1 85.0733213 68.2532211 5
	509	1 86.9890696 68.2299937 5
	510	1 87.92826 59.526524 5
	511	1 89.6794308 64.6972043 5
	512	1 130.531926 40.4740751 5
	513	1 120.389522 46.374234 5
	514	1 121.506078 47.3321167 5
	515	1 123.765054 46.992064 5
	516	1 122.890579 46.5235213 5
	517	1 120.349499 35.0743867 5
	518	1 119.569814 35.8607824 5
	519	1 119.950169 37.2623342 5
	520	1 121.693055 35.2811037 5
	521	1 121.545324 37.3861659 5
	522	1 122.113341 36.5710424 5
	523	1 77.2906502 50.4389087 5
	524	1 79.3181971 52.0808104 5
	525	1 77.0764919 51.8006536 5
	526	1 78.1200553 52.5955656 5
	527	1 85.5629088 59.1589011 5
	528	1 86.8284353 58.5597099 5
	529	1 80.999764 50.2349735 5
	530	1 78.8038309 48.6605814 5
	531	1 79.4529971 50.7974092 5
	532	1 78.5549685 50.0164697 5
	533	1 83.1536477 50.7563528 5
	534	1 81.6431143 50.8896334 5
	535	1 80.5081316 43.075495 5
	536	1 78.2831692 44.0362486 5
	537	1 78.8692857 42.9029564 5
	538	1 77.1978228 64.035449 5
	539	1 69.9942655 61.0188875 5
	540	1 70.0084274 59.7212867 5
	541	1 73.796406 59.1433174 5
	542	1 71.5079339 57.7782051 5
	543	1 71.4314422 59.0761744 5
	544	1 72.4390492 59.8409782 5
	545	1 78.3924743 62.267057 5
	546	1 77.2061415 61.3946369 5
	547	1 77.3467268 60.2630164 5
	548	1 80.3855611 52.8463017 5
	549	1 81.3613754 52.4361663 5
	550	1 77.5695664 57.636929 5
	551	1 75.6992599 53.5992907 5
	552	1 75.8918543 52.2553644 5
	553	1 73.4718285 53.3077608 5
	554	1 74.4784116 54.0855064 5
	555	1 206.402273 62.6920057 5
	556	1 206.117263 61.4628874 5
	557	1 194.155965 60.657133 5
	558	1 204.494193 65.9214203 5
	559	1 204.100536 63.2425664 5
	560	1 205.607631 64.9081397 5
	561	1 205.314048 63.6766303 5
	562	1 181.942543 69.3051549 5
	563	1 175.09901 41.2178255 5
	564	1 176.277292 40.4467539 5
	565	1 177.515404 41.1573796 5
	566	1 181.368034 42.7354583 5
	567	1 183.972176 43.4552065 5
	568	1 177.801384 46.1643248 5
	569	1 179.375961 46.0985938 5
	570	1 179.925272 44.7893175 5
	571	1 168.718159 60.7592534 5
	572	1 168.719846 59.4655041 5
	573	1 167.632475 58.7742534 5
	574	1 166.413894 59.4247211 5
	575	1 166.391086 60.7658572 5
	576	1 167.446763 61.4331089 5
	577	1 175.839136 48.9367727 5
	578	1 173.791386 47.29042 5
	579	1 176.068965 47.3125944 5
	580	1 175.264889 46.6920409 5
	581	1 173.808719 48.8063052 5
	582	1 174.655199 49.3424382 5
	583	1 173.56166 51.4683032 5
	584	1 174.574832 50.9544609 5
	585	1 178.719868 69.2426568 5
	586	1 181.219808 69.4640749 5
	587	1 180.109286 68.520628 5
	588	1 178.86369 66.6319278 5
	589	1 180.162692 67.4637476 5
	590	1 180.513551 61.087445 5
	591	1 180.93925 62.7126737 5
	592	1 180.660989 56.5886196 5
	593	1 180.825752 59.3122749 5
	594	1 171.20985 55.5350542 5
	595	1 178.279072 56.8113309 5
	596	1 178.387728 59.5243785 5
	597	1 179.479921 57.4320105 5
	598	1 179.593133 58.6949721 5
	599	1 175.322238 68.5612609 5
	600	1 174.09487 69.2520334 5
	601	1 166.136895 68.7955031 5
	602	1 184.100845 54.0482187 5
	603	1 184.819011 51.6793993 5
	604	1 183.636856 52.5850254 5
	605	1 181.923503 63.0059523 5
	606	1 162.562301 66.8537304 5
	607	1 161.435791 67.5872119 5
	608	1 163.79015 67.4983057 5
	609	1 161.640413 69.0842977 5
	610	1 160.266713 67.1180356 5
	611	1 157.603605 66.5871424 5
	612	1 151.068831 61.5367991 5
	613	1 150.677935 58.9051001 5
	614	1 152.220907 60.5652223 5
	615	1 151.966167 59.3643666 5
	616	1 152.430273 63.2341188 5
	617	1 151.321533 62.7666985 5
	618	1 163.882968 64.8265743 5
	619	1 161.48792 64.8030003 5
	620	1 162.53171 65.4971448 5
	621	1 154.571985 60.1164126 5
	622	1 153.376111 61.049896 5
	623	1 154.699419 62.8185204 5
	624	1 153.617445 62.3464317 5
	625	1 159.478504 63.0018727 5
	626	1 159.532678 60.3587639 5
	627	1 145.298927 56.215253 5
	628	1 144.985318 54.9975359 5
	629	1 145.94958 54.0550789 5
	630	1 147.207481 54.4008838 5
	631	1 151.560015 53.1718075 5
	632	1 151.055582 55.457761 5
	633	1 151.378492 56.7509054 5
	634	1 153.189993 54.8070218 5
	635	1 151.972509 54.5448963 5
	636	1 152.978292 58.4110478 5
	637	1 154.341223 58.8556642 5
	638	1 155.348494 57.8958401 5
	639	1 152.689862 57.1349385 5
	640	1 154.69743 56.4161011 5
	641	1 153.657915 56.1993346 5
	642	1 169.048615 36.8527236 5
	643	1 170.253449 37.4205852 5
	644	1 161.691296 37.587773 5
	645	1 161.517953 36.2102203 5
	646	1 161.955616 35.7202768 5
	647	1 160.72134 38.3897502 5
	648	1 157.482336 44.9484989 5
	649	1 157.934404 46.3528108 5
	650	1 156.960381 47.2768774 5
	651	1 157.303438 48.5982906 5
	652	1 158.65961 48.9783042 5
	653	1 158.602626 58.5425886 5
	654	1 156.095345 57.9950111 5
	655	1 157.043521 59.3248046 5
	656	1 161.894616 59.1875017 5
	657	1 160.77057 58.514037 5
	658	1 167.654334 57.477078 5
	659	1 166.533356 56.7649242 5
	660	1 166.571012 55.4925379 5
	661	1 168.873158 56.811142 5
	662	1 171.068472 60.7311279 5
	663	1 172.090287 61.4113075 5
	664	1 169.762101 61.4329508 5
	665	1 169.777514 62.7283365 5
	666	1 164.081832 60.7333864 5
	667	1 165.16022 61.3965536 5
	668	1 165.147316 62.7908772 5
	669	1 163.87656 63.4179795 5
	670	1 172.326534 57.5370018 5
	671	1 172.321845 58.7652642 5
	672	1 173.527154 56.8365356 5
	673	1 174.421599 62.6809074 5
	674	1 140.155223 10.926322 5
	675	1 140.218285 12.2707489 5
	676	1 139.067052 12.9624598 5
	677	1 137.932212 12.3527188 5
	678	1 145.810316 14.0345609 5
	679	1 146.916256 14.5913558 5
	680	1 151.380758 10.8126519 5
	681	1 152.506645 10.0815796 5
	682	1 150.1367 10.0388623 5
	683	1 155.870076 10.520831 5
	684	1 154.754883 9.97753045 5
	685	1 153.647331 10.6881576 5
	686	1 147.143395 7.74993134 5
	687	1 144.692744 6.62542745 5
	688	1 143.53301 8.70730858 5
	689	1 143.644216 10.0696292 5
	690	1 144.824785 7.94904293 5
	691	1 145.770042 8.47891167 5
	692	1 159.157302 9.6693619 5
	693	1 158.050026 10.3457554 5
	694	1 160.328724 14.2695031 5
	695	1 157.777967 6.30559614 5
	696	1 156.846158 8.41957498 5
	697	1 157.917535 7.72044464 5
	698	1 152.859543 4.24086084 5
	699	1 148.199193 5.55043677 5
	700	1 146.994328 6.36756496 5
	701	1 145.882419 5.82906149 5
	702	1 147.925443 4.12972333 5
	703	1 144.036657 0.0260021532 5
	704	1 143.044282 0.834572919 5
	705	1 145.279214 0.515767368 5
	706	1 143.209039 2.14025597 5
	707	1 140.95719 2.40443429 5
	708	1 139.91435 3.17281449 5
	709	1 142.304897 4.22656069 5
	710	1 142.160303 2.92273361 5
	711	1 140.025746 4.43162275 5
	712	1 141.176296 5.00878186 5
	713	1 190.216022 7.30690461 5
	714	1 206.186757 41.0138741 5
	715	1 208.788459 41.0970396 5
	716	1 193.612123 32.0731969 5
	717	1 201.182271 39.1261406 5
	718	1 195.840787 44.5251159 5
	719	1 193.253767 42.1478324 5
	720	1 194.471794 42.6954083 5
	721	1 194.62742 43.927704 5
	722	1 192.127003 42.9929688 5
	723	1 193.445896 44.8094381 5
	724	1 192.324564 44.3081792 5
	725	1 191.869262 40.3396163 5
	726	1 189.384856 39.3702611 5
	727	1 190.508946 38.5108264 5
	728	1 191.670563 38.9559941 5
	729	1 187.538827 43.6664487 5
	730	1 190.967033 42.4898418 5
	731	1 190.767987 41.1675469 5
	732	1 189.605549 40.6768053 5
	733	1 189.832664 43.336139 5
	734	1 188.473217 41.5467141 5
	735	1 188.662131 42.8156967 5
	736	1 187.988337 37.6806131 5
	737	1 192.044593 32.9602526 5
	738	1 192.013272 33.9998418 5
	739	1 176.593308 51.1079091 5
	740	1 176.769246 49.5877846 5
	741	1 177.940046 49.1991972 5
	742	1 181.560311 53.4590628 5
	743	1 182.858126 52.3566161 5
	744	1 182.19848 50.9766784 5
	745	1 176.96699 53.6596346 5
	746	1 177.047971 54.8566234 5
	747	1 178.219797 55.4763157 5
	748	1 179.328462 54.7808534 5
	749	1 209.691433 43.5538844 5
	750	1 208.104928 42.7718636 5
	751	1 207.638535 42.9617481 5
	752	1 160.694109 1.26897391 5
	753	1 161.818462 1.75090065 5
	754	1 159.580655 2.04904395 5
	755	1 161.966703 3.20810727 5
	756	1 160.892482 3.91949505 5
	757	1 159.753792 3.43218316 5
	758	1 165.324239 3.55118941 5
	759	1 164.154459 3.03141548 5
	760	1 165.102369 0.892113501 5
	761	1 164.055407 1.55287769 5
	762	1 45.178507 0.342233642 5
	763	1 38.5913477 2.04225474 5
	764	1 37.3334801 1.66335757 5
	765	1 36.3464317 2.66218436 5
	766	1 35.0666382 2.28687257 5
	767	1 31.2769117 6.05369087 5
	768	1 31.6393609 7.37399171 5
	769	1 48.0666487 24.1483108 5
	770	1 47.2926116 25.4883417 5
	771	1 48.2577307 26.6454659 5
	772	1 49.8997256 28.7761605 5
	773	1 60.3258597 55.279822 5
	774	1 61.9775573 53.7593865 5
	775	1 61.6725838 54.8945721 5
	776	1 17.9965611 18.1982129 5
	777	1 16.3699416 16.5251267 5
	778	1 16.7413272 17.8716926 5
	779	1 9.37297987 18.4549029 5
	780	1 89.6459094 26.2250293 5
	781	1 87.3197444 24.8110283 5
	782	1 92.5219447 22.7598252 5
	783	1 92.9225419 24.2287365 5
	784	1 91.9880892 25.0230799 5
	785	1 90.5457003 13.3842691 5
	786	1 90.0432689 15.6305135 5
	787	1 90.9606487 14.5380197 5
	788	1 92.2686879 14.830934 5
	789	1 92.6595714 15.9727204 5
	790	1 78.7010203 27.1691026 5
	791	1 82.4332852 26.0790906 5
	792	1 82.8416206 26.9798387 5
	793	1 80.7022717 26.1058018 5
	794	1 80.1877419 27.1525315 5
	795	1 74.7922276 29.5653913 5
	796	1 85.537444 9.12652478 5
	797	1 88.1154278 9.40989989 5
	798	1 73.8775649 13.2401078 5
	799	1 72.5715116 13.0479565 5
	800	1 72.1336003 11.6965431 5
	801	1 84.5025975 6.76043669 5
	802	1 83.8794558 5.61342608 5
	803	1 63.0606627 47.3631056 5
	804	1 65.5164586 46.4477015 5
	805	1 65.3178102 47.7335463 5
	806	1 64.1513335 48.2167496 5
	807	1 50.2067658 27.6050741 5
	808	1 49.2965195 26.507879 5
	809	1 119.334568 1.0393843 5
	810	1 120.621566 0.678842021 5
	811	1 117.17181 3.31747098 5
	812	1 117.374785 2.64084313 5
	813	1 115.815342 3.98842508 5
	814	1 114.802413 3.39605185 5
	815	1 114.700742 2.09026191 5
	816	1 44.4788986 12.4212866 5
	817	1 45.7575938 8.01610788 5
	818	1 46.863174 8.39009395 5
	819	1 66.1197298 4.4919197 5
	820	1 69.9019808 6.16480224 5
	821	1 67.8015143 6.4213401 5
	822	1 67.3182571 2.33782083 5
	823	1 68.0948396 1.73010725 5
	824	1 75.9922134 0.977950951 5
	825	1 82.6446078 3.19873416 5
	826	1 96.1150996 4.95042762 5
	827	1 96.9057395 3.99311783 5
	828	1 96.4798728 2.69849712 5
	829	1 94.7583366 4.7146226 5
	830	1 94.6663557 1.21420097 5
	831	1 95.1122204 2.48543036 5
	832	1 94.3126485 3.4550343 5
	833	1 91.8065661 6.51174766 5
	834	1 92.6370743 5.50663134 5
	835	1 90.5155863 6.31645763 5
	836	1 85.3220618 0.204229183 5
	837	1 84.5175524 1.24735835 5
	838	1 7.4120449 20.4447275 5
	839	1 6.43157742 21.4396398 5
	840	1 1.35770857 20.221656 5
	841	1 0.342885986 21.2473849 5
	842	1 0.923727461 11.9764318 5
	843	1 3.17647565 11.2994097 5
	844	1 2.41967005 12.2409546 5
	845	1 121.442797 48.3402904 5
	846	1 31.745395 69.1744797 5
	847	1 29.2025395 68.4223475 5
	848	1 206.844969 65.3559067 5
	849	1 209.952218 62.5680493 5
	850	1 208.723069 62.1351353 5
	851	1 207.638245 63.13599 5
	852	1 207.927683 64.3446938 5
	853	1 203.101834 57.9380503 5
	854	1 204.124558 57.1002234 5
	855	1 206.90401 59.278011 5
	856	1 205.630312 58.8267291 5
	857	1 205.382419 57.5515349 5
	858	1 207.969103 58.2627919 5
	859	1 209.894547 56.390411 5
	860	1 209.736597 44.7691123 5
	861	1 195.983636 45.8197651 5
	862	1 194.85783 46.6466435 5
	863	1 149.426013 35.2783791 5
	864	1 144.963923 37.3887342 5
	865	1 150.911433 47.0402628 5
	866	1 149.568819 46.7777291 5
	867	1 149.166201 45.444644 5
	868	1 149.925285 44.5767618 5
	869	1 156.286142 44.6380151 5
	870	1 128.895514 44.6001639 5
	871	1 131.012681 43.0696496 5
	872	1 130.123781 45.2809092 5
	873	1 131.249092 44.4254701 5
	874	1 128.453697 47.1466956 5
	875	1 128.480898 48.4730766 5
	876	1 126.093959 48.3735428 5
	877	1 127.123592 49.1499669 5
	878	1 132.359384 52.477356 5
	879	1 131.890275 50.3990146 5
	880	1 131.812044 49.2404619 5
	881	1 130.596769 48.5592544 5
	882	1 129.462814 49.1287721 5
	883	1 144.169052 38.7018135 5
	884	1 142.626919 40.7666385 5
	885	1 142.547087 38.4872172 5
	886	1 141.897131 39.3495393 5
	887	1 140.933518 39.3927602 5
	888	1 136.15621 39.7740802 5
	889	1 135.161147 39.4173963 5
	890	1 133.171444 42.5230415 5
	891	1 132.050745 42.1995868 5
	892	1 134.205573 41.5764707 5
	893	1 133.98264 40.4359658 5
	894	1 131.650327 40.7257022 5
	895	1 132.652125 39.8230207 5
	896	1 132.346193 46.7460365 5
	897	1 134.876903 47.5716079 5
	898	1 132.894338 48.3568847 5
	899	1 133.948132 48.5859978 5
	900	1 129.443849 31.2736531 5
	901	1 130.874698 31.2338064 5
	902	1 128.86556 32.4510777 5
	903	1 134.819013 28.7630279 5
	904	1 131.449858 29.890625 5
	905	1 130.806569 29.0081772 5
	906	1 132.812429 29.8471215 5
	907	1 133.406817 28.7671393 5
	908	1 131.319067 27.5750009 5
	909	1 132.787076 27.5579316 5
	910	1 132.927733 25.3879321 5
	911	1 133.336056 26.6609169 5
	912	1 134.242765 24.4605263 5
	913	1 85.1025176 26.4613204 5
	914	1 84.142833 27.2812216 5
	915	1 83.2577921 31.3598799 5
	916	1 84.5174004 28.9458251 5
	917	1 84.9292206 29.1649527 5
	918	1 99.6689168 9.38491339 5
	919	1 97.190197 8.72150405 5
	920	1 98.1704141 7.73275445 5
	921	1 99.3807228 8.06444738 5
	922	1 100.952096 11.5084253 5
	923	1 102.914648 9.73085998 5
	924	1 100.923274 9.78198638 5
	925	1 101.72359 9.26948727 5
	926	1 97.3684781 12.4311495 5
	927	1 96.8940206 11.0374417 5
	928	1 99.0392162 12.4967664 5
	929	1 99.4190635 11.8525093 5
	930	1 97.7489626 10.1319815 5
	931	1 98.7279332 10.2578668 5
	932	1 104.617713 15.5373923 5
	933	1 102.079083 25.9197058 5
	934	1 101.143332 20.1450884 5
	935	1 99.7059804 19.6654158 5
	936	1 98.7339456 20.7889453 5
	937	1 119.98912 33.6317731 5
	938	1 115.813494 29.5702699 5
	939	1 116.996682 23.4539976 5
	940	1 115.729473 28.2414621 5
	941	1 125.531939 35.4901031 5
	942	1 128.055254 34.9646352 5
	943	1 140.584679 35.1713854 5
	944	1 139.495716 34.8291705 5
	945	1 141.547628 34.5257932 5
	946	1 144.385591 49.0126463 5
	947	1 142.964689 48.7285466 5
	948	1 143.957089 51.16316 5
	949	1 144.750461 50.2717831 5
	950	1 144.814038 46.8428902 5
	951	1 142.188535 49.6793944 5
	952	1 141.817206 51.7660695 5
	953	1 142.546852 50.8972914 5
	954	1 146.123584 68.4021852 5
	955	1 144.69046 66.7009254 5
	956	1 144.887198 67.9022044 5
	957	1 139.800418 59.2443888 5
	958	1 139.619617 58.1336644 5
	959	1 138.72185 60.1848559 5
	960	1 138.348538 57.5874589 5
	961	1 137.4561 59.6223502 5
	962	1 137.299385 58.4208393 5
	963	1 140.087663 53.6329274 5
	964	1 139.104797 54.5337932 5
	965	1 143.454784 59.3427143 5
	966	1 143.035368 56.7506607 5
	967	1 141.964879 57.7512086 5
	968	1 142.167357 58.7989892 5
	969	1 144.529199 58.3255121 5
	970	1 144.266984 57.2013151 5
	971	1 146.035806 59.9168868 5
	972	1 146.433456 62.5321556 5