# USER_LATT cell with dimension 1 x 1 x 1 and a = 1
      5023  atoms
         1  atom types

 0.   110.00000000000000  xlo xhi
 0.   110.00000000000000  ylo yhi
 0.   100.00000000000000  zlo zhi

Atoms

1 1    41.34927750000000    42.90671540000000    50.00000000000000
2 1    23.61137960000000    67.75144200000000    50.00000000000000
3 1    24.06657220000000    68.85266120000000    50.00000000000000
4 1    43.81727979999999    99.11650090000001    50.00000000000000
5 1    82.87876140000000    57.47650149999999    50.00000000000000
6 1    64.62203980000000    31.68479160000000    50.00000000000000
7 1    40.35519789999999    44.31391530000000    50.00000000000000
8 1    59.40846639999999    67.12769320000000    50.00000000000000
9 1    59.53465649999999    65.85817720000000    50.00000000000000
10 1    69.01914979999999    66.50070959999999    50.00000000000000
11 1    67.81350710000000    65.80696110000000    50.00000000000000
12 1     8.90861240000000   109.26898959999998    50.00000000000000
13 1    28.10417940000000    63.38171389999999    50.00000000000000
14 1    29.29118160000000    52.64728930000000    50.00000000000000
15 1    28.54705999999999    53.84554300000000    50.00000000000000
16 1     3.92302280000000    94.19608310000000    50.00000000000000
17 1     2.81376080000000    93.86597440000000    50.00000000000000
18 1    22.19512180000000    98.73703769999999    50.00000000000000
19 1    20.81932640000000    98.49546820000000    50.00000000000000
20 1    72.34697719999998    96.85031140000000    50.00000000000000
21 1    70.89590459999998    96.60564429999999    50.00000000000000
22 1    45.04468160000000    99.78813169999999    50.00000000000000
23 1   102.03619380000001    19.90350920000000    50.00000000000000
24 1    88.46224219999999     4.15322160000000    50.00000000000000
25 1    89.09912869999999     2.92734500000000    50.00000000000000
26 1    10.37033650000000   108.56623079999999    50.00000000000000
27 1    22.10360530000000    15.67034340000000    50.00000000000000
28 1    22.50067520000000     5.05886220000000    50.00000000000000
29 1    29.94406700000000    10.19171810000000    50.00000000000000
30 1    28.78148460000000    10.60701940000000    50.00000000000000
31 1    65.20413210000000    34.01367190000000    50.00000000000000
32 1    64.24595640000000    32.84179700000000    50.00000000000000
33 1    62.53007889999999    34.47922140000000    50.00000000000000
34 1    62.81842420000000    33.20020680000000    50.00000000000000
35 1    66.40753180000000    33.72925570000000    50.00000000000000
36 1    69.01573940000000    33.02967070000000    50.00000000000000
37 1    69.14329530000001    36.95337680000000    50.00000000000000
38 1    69.49424749999999    35.49233629999999    50.00000000000000
39 1    67.23497010000000    36.98748399999999    50.00000000000000
40 1    66.75850680000001    36.39136120000000    50.00000000000000
41 1    68.49072270000001    34.55280690000000    50.00000000000000
42 1    67.43883520000000    34.73733900000000    50.00000000000000
43 1    65.49921420000000    40.58523180000000    50.00000000000000
44 1    66.93820200000000    38.59142310000000    50.00000000000000
45 1    65.62838749999999    39.00989530000000    50.00000000000000
46 1    59.60919950000000    38.12071230000000    50.00000000000000
47 1    60.83229450000000    38.95754240000000    50.00000000000000
48 1    56.69795990000000    44.73977279999999    50.00000000000000
49 1    63.18782040000000    39.26094440000000    50.00000000000000
50 1    64.66179660000000    38.30919270000000    50.00000000000000
51 1    62.15042880000000    37.13248830000000    50.00000000000000
52 1    61.97902679999999    38.38424679999999    50.00000000000000
53 1    64.20614620000001    41.10556410000000    50.00000000000000
54 1    63.18362430000000    40.37576299999999    50.00000000000000
55 1    59.48089220000000    40.85235980000000    50.00000000000000
56 1    60.69083409999999    40.27911000000000    50.00000000000000
57 1    61.83010870000000    41.08213040000000    50.00000000000000
58 1    67.67911530000001    55.32599260000000    50.00000000000000
59 1    20.52259450000000    41.90490340000000    50.00000000000000
60 1    42.73410799999999    30.46005060000000    50.00000000000000
61 1    46.75996400000000    34.03030780000000    50.00000000000000
62 1    39.51045229999999    44.31580740000000    50.00000000000000
63 1    38.67199710000000    45.58848960000000    50.00000000000000
64 1    50.64924620000000    56.61060340000000    50.00000000000000
65 1    51.92057420000000    56.03190229999999    50.00000000000000
66 1    58.47259909999999    63.68249899999999    50.00000000000000
67 1    58.34456640000000    65.00610349999999    50.00000000000000
68 1    57.33576589999999    62.87084960000000    50.00000000000000
69 1    63.55790330000000    61.36768340000000    50.00000000000000
70 1    63.69239430000000    59.97733320000000    50.00000000000000
71 1    65.59123230000000    64.23329160000000    50.00000000000000
72 1    64.56441500000000    63.51427080000000    50.00000000000000
73 1    64.63552860000000    62.13706590000000    50.00000000000000
74 1    46.30466840000000    63.83200839999999    50.00000000000000
75 1    45.07116700000000    64.44374089999998    50.00000000000000
76 1    44.93983080000000    65.69150550000001    50.00000000000000
77 1    68.93661500000000    67.91127020000000    50.00000000000000
78 1     6.35170460000000   109.93085480000001    50.00000000000000
79 1     3.87270280000000   109.16644289999999    50.00000000000000
80 1    22.56134420000000    65.28307340000001    50.00000000000000
81 1    26.83116150000000    63.29535679999999    50.00000000000000
82 1    24.13910680000000    63.12331010000000    50.00000000000000
83 1    22.02842520000000    64.10225679999999    50.00000000000000
84 1    22.75642400000000    63.02482220000000    50.00000000000000
85 1    28.91370960000000    62.20384599999999    50.00000000000000
86 1    30.14510350000000    62.28920750000000    50.00000000000000
87 1    30.97942919999999    61.07744219999999    50.00000000000000
88 1    28.58090400000000    51.43529510000000    50.00000000000000
89 1    29.22655680000000    55.03112789999999    50.00000000000000
90 1     3.55116580000000    96.39957430000000    50.00000000000000
91 1     4.31977370000000    95.40072630000000    50.00000000000000
92 1     9.46245100000000    98.82746890000000    50.00000000000000
93 1     8.11234090000000    98.60315710000000    50.00000000000000
94 1     3.27471230000000    91.53419499999998    50.00000000000000
95 1     2.33921530000000    92.49863439999999    50.00000000000000
96 1     1.83112410000000    96.11048129999999    50.00000000000000
97 1     1.49967470000000    95.03138730000001    50.00000000000000
98 1    23.17288970000000   108.54766850000000    50.00000000000000
99 1    22.42779160000000   107.28200529999999    50.00000000000000
100 1    20.34063720000000    97.18320470000000    50.00000000000000
101 1    27.10045240000000    98.30560299999999    50.00000000000000
102 1     7.67690180000000    97.20715329999999    50.00000000000000
103 1     5.79891590000000    95.67933659999998    50.00000000000000
104 1     6.21167230000000    96.99304200000000    50.00000000000000
105 1     4.49689150000000    91.76050570000000    50.00000000000000
106 1     4.97035360000000    93.11107640000000    50.00000000000000
107 1    52.66249089999999    72.38211819999998    50.00000000000000
108 1    51.34949879999999    72.99488080000000    50.00000000000000
109 1    48.91596980000000    74.23045349999998    50.00000000000000
110 1    35.15837859999999    82.64854430000000    50.00000000000000
111 1    37.76992040000000    83.35426330000000    50.00000000000000
112 1    39.47666930000000    83.06975559999999    50.00000000000000
113 1    57.15029530000000   104.97599800000000    50.00000000000000
114 1    63.07725140000000   105.87403119999999    50.00000000000000
115 1    23.09222600000000    97.66635129999999    50.00000000000000
116 1    24.41240690000000    97.89816279999999    50.00000000000000
117 1    28.91845320000000    99.79710389999998    50.00000000000000
118 1    28.51468280000000    98.53958129999998    50.00000000000000
119 1    30.76797870000000   101.43465429999999    50.00000000000000
120 1    31.26585960000000    99.18430329999998    50.00000000000000
121 1    30.47663310000000   100.09484100000000    50.00000000000000
122 1    32.13335800000000    99.18929290000000    50.00000000000000
123 1    58.15364839999999   109.57158660000000    50.00000000000000
124 1    55.92260360000000   105.69757079999998    50.00000000000000
125 1    85.28938290000001    56.16806789999999    50.00000000000000
126 1    82.93218239999999    56.06567760000000    50.00000000000000
127 1    84.18222810000000    55.45904540000000    50.00000000000000
128 1    84.23728939999998    54.02504350000000    50.00000000000000
129 1    83.21407320000000    53.34429930000000    50.00000000000000
130 1    70.05551910000000    65.94413000000000    50.00000000000000
131 1    71.27419279999998    66.49324799999999    50.00000000000000
132 1    73.03342440000000    61.65030670000000    50.00000000000000
133 1    81.85958860000000    55.36975480000000    50.00000000000000
134 1    81.88700879999999    53.98070540000000    50.00000000000000
135 1    83.37328340000001    37.32446290000000    50.00000000000000
136 1    93.18605040000000    48.44007490000000    50.00000000000000
137 1    94.44988250000000    47.84518820000000    50.00000000000000
138 1    94.56201170000000    46.50807570000000    50.00000000000000
139 1   100.63552860000000    20.03793140000000    50.00000000000000
140 1    99.84273539999998    18.86703680000000    50.00000000000000
141 1    93.81619270000000    20.48515320000000    50.00000000000000
142 1    94.42208860000000    19.22656060000000    50.00000000000000
143 1    68.23372649999999     1.52484560000000    50.00000000000000
144 1    69.36631780000000     2.03876610000000    50.00000000000000
145 1    85.95753480000000     0.50645850000000    50.00000000000000
146 1    88.79267119999999     0.56529050000000    50.00000000000000
147 1    87.12639620000000     1.79861300000000    50.00000000000000
148 1    88.19583890000000     1.65585130000000    50.00000000000000
149 1    85.26705929999999     0.65157510000000    50.00000000000000
150 1    86.41309359999998     3.15905620000000    50.00000000000000
151 1    87.13697820000000     4.20585200000000    50.00000000000000
152 1   101.44841769999998    15.14078240000000    50.00000000000000
153 1   100.46347810000000    17.66517260000000    50.00000000000000
154 1    95.63388060000000    16.70937350000000    50.00000000000000
155 1    96.23977660000000    15.45078090000000    50.00000000000000
156 1   101.82463079999998     9.22075370000000    50.00000000000000
157 1   103.05924229999999     9.14550880000000    50.00000000000000
158 1   103.75993349999999     7.93735420000000    50.00000000000000
159 1   103.02571869999998     6.79946230000000    50.00000000000000
160 1   109.85054020000000     3.73788840000000    50.00000000000000
161 1   109.69732670000000     5.09132290000000    50.00000000000000
162 1   108.17202000000000     5.62898970000000    50.00000000000000
163 1   107.91007239999999     6.74857860000000    50.00000000000000
164 1     8.73781300000000     0.22845660000000    50.00000000000000
165 1    16.27029800000000     0.30964220000000    50.00000000000000
166 1     3.68498760000000     2.01051260000000    50.00000000000000
167 1     2.79718000000000     7.58414410000000    50.00000000000000
168 1    18.71880920000000     0.10128680000000    50.00000000000000
169 1    18.09336280000000     0.74885450000000    50.00000000000000
170 1    10.33017540000000    97.88190460000000    50.00000000000000
171 1    69.77864839999998    45.05818180000000    50.00000000000000
172 1    82.94720460000001     6.83538490000000    50.00000000000000
173 1    78.65476990000001    10.82887180000000    50.00000000000000
174 1    78.99490360000000    15.58825210000000    50.00000000000000
175 1    25.87115100000000    26.75732620000000    50.00000000000000
176 1    25.63136680000000    28.28849599999999    50.00000000000000
177 1    21.36525540000000    19.79530910000000    50.00000000000000
178 1    21.85748860000000    17.04533200000000    50.00000000000000
179 1    30.22237780000000     8.79398830000000    50.00000000000000
180 1    24.53031920000000     6.94424340000000    50.00000000000000
181 1    23.35414120000000     7.38577370000000    50.00000000000000
182 1    22.25251960000000     6.55715560000000    50.00000000000000
183 1    26.22309300000000    11.55237580000000    50.00000000000000
184 1    25.17370420000000    11.94657240000000    50.00000000000000
185 1    29.81077390000000    25.47858430000000    50.00000000000000
186 1    27.23288920000000    26.34350400000000    50.00000000000000
187 1    26.06237410000000    20.59112930000000    50.00000000000000
188 1    27.33056830000000    20.12968450000000    50.00000000000000
189 1    26.75531960000000    16.55505370000000    50.00000000000000
190 1    27.97485160000000    16.09837720000000    50.00000000000000
191 1    26.49927330000000    17.90443800000000    50.00000000000000
192 1    27.57062720000000    18.79557990000000    50.00000000000000
193 1    28.83652310000000    18.32449910000000    50.00000000000000
194 1    29.08373830000000    17.01684760000000    50.00000000000000
195 1    33.81440360000000    15.24427890000000    50.00000000000000
196 1    30.31909750000000    16.53770640000000    50.00000000000000
197 1    32.95760740000000    15.67724800000000    50.00000000000000
198 1    11.87111280000000    62.98383339999999    50.00000000000000
199 1    12.55602650000000    61.94530120000000    50.00000000000000
200 1    16.02918240000000    58.46520620000000    50.00000000000000
201 1    18.72375110000000    82.16082000000000    50.00000000000000
202 1    19.62085730000000    81.09013369999998    50.00000000000000
203 1    19.14216810000000    79.77787019999998    50.00000000000000
204 1    78.76156620000000    37.26548389999999    50.00000000000000
205 1    78.02684020000000    36.44153219999999    50.00000000000000
206 1    79.40544890000000    22.79891210000000    50.00000000000000
207 1    42.81610490000000    21.75691230000000    50.00000000000000
208 1    35.95594020000000    15.71607780000000    50.00000000000000
209 1    35.41035080000000    16.07162090000000    50.00000000000000
210 1    31.08391000000000    25.08746150000000    50.00000000000000
211 1    31.40105630000000    23.69724090000000    50.00000000000000
212 1    33.61581040000000    24.12002370000000    50.00000000000000
213 1    32.67668540000000    23.31960870000000    50.00000000000000
214 1    35.56661230000000    25.99183860000000    50.00000000000000
215 1    69.45788580000000    37.40738300000000    50.00000000000000
216 1    77.18279269999998    33.77385710000000    50.00000000000000
217 1    65.53279119999999    29.12243650000000    50.00000000000000
218 1    66.87586219999999    32.35742570000000    50.00000000000000
219 1    68.11679080000000    32.11894230000000    50.00000000000000
220 1    65.96224220000001    31.39003950000000    50.00000000000000
221 1    66.36991120000000    30.04936220000000    50.00000000000000
222 1    47.33907700000000    31.47714620000000    50.00000000000000
223 1    64.11981200000000    29.40779880000000    50.00000000000000
224 1    63.74742129999999    30.67704580000000    50.00000000000000
225 1    58.41953279999999    40.15248870000000    50.00000000000000
226 1    58.48675159999999    38.62052159999999    50.00000000000000
227 1    63.37460710000000    35.32430650000000    50.00000000000000
228 1    63.12634660000000    36.63137060000000    50.00000000000000
229 1    64.81219480000000    34.96052940000000    50.00000000000000
230 1    65.69040680000001    36.32363510000000    50.00000000000000
231 1    64.58152770000000    37.55003740000000    50.00000000000000
232 1    61.76509859999999    42.37223820000000    50.00000000000000
233 1    56.57995989999999    45.99576960000000    50.00000000000000
234 1    56.27251439999999    48.73438270000000    50.00000000000000
235 1    62.28657530000000    61.94638819999999    50.00000000000000
236 1    59.74392320000000    63.10379409999999    50.00000000000000
237 1    59.87841419999999    61.71344379999999    50.00000000000000
238 1    61.14974210000000    61.13473890000000    50.00000000000000
239 1    63.93824780000000    57.20715710000000    50.00000000000000
240 1    66.37819670000000    55.92556759999999    50.00000000000000
241 1    67.74650579999998    53.92181020000000    50.00000000000000
242 1    68.68623350000000    57.41263579999999    50.00000000000000
243 1    68.72578430000000    56.03651050000000    50.00000000000000
244 1    15.66041470000000     1.65697400000000    50.00000000000000
245 1    15.38325310000000     4.32353930000000    50.00000000000000
246 1     1.57811420000000     8.08347130000000    50.00000000000000
247 1    13.06963730000000    11.21522050000000    50.00000000000000
248 1    11.75580410000000    11.68957240000000    50.00000000000000
249 1    13.24663070000000    23.95778860000000    50.00000000000000
250 1    18.37682920000000    45.34787750000000    50.00000000000000
251 1    19.01669690000000    44.15820310000000    50.00000000000000
252 1    16.91227160000000    45.32802960000000    50.00000000000000
253 1    16.31387520000000    44.14284520000000    50.00000000000000
254 1    43.76951220000000    22.80820280000000    50.00000000000000
255 1    45.04695510000000    22.53326040000000    50.00000000000000
256 1    43.09099200000000    29.07734490000000    50.00000000000000
257 1    42.18536380000000    34.77535250000000    50.00000000000000
258 1    42.50116730000000    33.11560440000000    50.00000000000000
259 1    49.42129520000000    45.31878660000000    50.00000000000000
260 1    53.86435320000000    48.50143820000000    50.00000000000000
261 1    54.17992400000000    45.76460650000000    50.00000000000000
262 1    55.26306920000000    46.60581210000000    50.00000000000000
263 1    55.13568119999999    47.92273340000000    50.00000000000000
264 1    57.03431699999999    42.04685970000000    50.00000000000000
265 1    57.13361360000000    40.73307800000000    50.00000000000000
266 1    56.09491730000000    39.96561440000000    50.00000000000000
267 1    50.00597000000000    39.98469539999999    50.00000000000000
268 1    48.95245360000000    39.22724150000000    50.00000000000000
269 1    44.05463410000000    38.89861680000000    50.00000000000000
270 1    43.07963180000000    39.38953400000000    50.00000000000000
271 1    42.81891630000000    40.80825049999999    50.00000000000000
272 1    43.71304710000000    41.62151340000000    50.00000000000000
273 1    41.64762499999999    37.49390800000000    50.00000000000000
274 1    41.65378190000000    38.52489859999999    50.00000000000000
275 1    51.51710130000000    60.20295719999999    50.00000000000000
276 1    51.65159230000000    58.81260680000000    50.00000000000000
277 1    49.24343110000000    58.57965849999999    50.00000000000000
278 1    50.51475530000000    58.00095749999999    50.00000000000000
279 1    54.46322630000000    54.87449260000000    50.00000000000000
280 1    55.73455050000000    54.29579160000000    50.00000000000000
281 1    46.43179710000000    62.51777270000000    50.00000000000000
282 1    33.08184050000000    57.51743700000000    50.00000000000000
283 1    32.33475500000000    58.72072600000000    50.00000000000000
284 1    31.30723000000000    51.46628570000000    50.00000000000000
285 1    30.55525590000000    52.66496660000000    50.00000000000000
286 1    49.64690399999999    54.40860369999999    50.00000000000000
287 1    49.51241300000000    55.79895400000000    50.00000000000000
288 1    49.07743450000000    48.02216339999999    50.00000000000000
289 1    58.16124340000000    67.74848179999998    50.00000000000000
290 1    55.11951830000000    71.25040439999999    50.00000000000000
291 1    54.09522250000000    70.45032500000001    50.00000000000000
292 1    52.73672110000000    71.08940890000000    50.00000000000000
293 1    51.68644340000000    70.30824280000000    50.00000000000000
294 1    52.65393450000000    61.01460650000000    50.00000000000000
295 1    53.92525860000000    60.43590170000000    50.00000000000000
296 1    55.06209560000000    61.24755100000000    50.00000000000000
297 1    64.95106520000000    59.40438840000000    50.00000000000000
298 1    65.03262330000000    57.93831639999999    50.00000000000000
299 1    67.35778050000000    58.04894639999999    50.00000000000000
300 1    66.31150060000000    57.34767920000000    50.00000000000000
301 1    67.87995160000000    64.29780580000001    50.00000000000000
302 1    66.91150679999998    63.65335850000000    50.00000000000000
303 1    49.29831700000000    70.14596560000000    50.00000000000000
304 1    50.37498859999999    70.92893979999999    50.00000000000000
305 1    50.28357700000000    72.24578860000000    50.00000000000000
306 1    49.04210659999999    72.83359530000000    50.00000000000000
307 1    47.44910809999999    64.67613990000000    50.00000000000000
308 1    48.71252830000000    64.06803890000000    50.00000000000000
309 1    49.82809829999999    64.90784460000000    50.00000000000000
310 1    70.20799260000000    70.01013180000000    50.00000000000000
311 1    71.31015780000000    68.06655880000000    50.00000000000000
312 1    70.29102330000001    68.71901710000000    50.00000000000000
313 1    75.26162719999999    69.17751310000000    50.00000000000000
314 1    74.75162510000000    69.85468299999998    50.00000000000000
315 1    72.62545019999999    68.61286169999998    50.00000000000000
316 1    72.94927220000000    69.71056369999999    50.00000000000000
317 1    67.77812959999999    68.55998230000000    50.00000000000000
318 1    72.99525459999998    85.26428989999998    50.00000000000000
319 1    26.04738620000000    64.43524940000000    50.00000000000000
320 1    24.70347599999999    64.31051640000000    50.00000000000000
321 1    24.43634990000000    66.59595490000000    50.00000000000000
322 1    23.91909980000000    65.44171150000000    50.00000000000000
323 1    22.19447140000000    61.81695179999999    50.00000000000000
324 1    32.17210770000000    61.16134639999999    50.00000000000000
325 1    32.83245090000000    62.36779400000000    50.00000000000000
326 1    34.00965500000000    59.98845299999999    50.00000000000000
327 1    33.05336000000000    59.92559439999999    50.00000000000000
328 1    34.29465870000000    62.40201569999999    50.00000000000000
329 1    34.85609820000000    61.24288559999999    50.00000000000000
330 1    30.52621460000000    55.07607649999999    50.00000000000000
331 1    31.27635770000000    53.89836880000000    50.00000000000000
332 1    32.50149540000000    56.34645080000000    50.00000000000000
333 1    31.17802810000000    56.27140810000000    50.00000000000000
334 1    28.26893040000000    61.00296780000000    50.00000000000000
335 1    22.42590530000000    57.36326980000000    50.00000000000000
336 1    21.01599879999999    54.99958420000000    50.00000000000000
337 1     3.93523620000000    97.70334629999999    50.00000000000000
338 1     5.48774390000000    97.87865459999999    50.00000000000000
339 1     3.66364670000000    89.17170720000000    50.00000000000000
340 1     2.78402330000000    90.12025450000000    50.00000000000000
341 1     1.25876260000000    97.03108980000000    50.00000000000000
342 1     1.08960560000000   101.62886810000001    50.00000000000000
343 1     3.59979680000000   102.34249879999999    50.00000000000000
344 1    24.90619860000000    99.10839839999998    50.00000000000000
345 1    26.23122600000000    99.37416079999998    50.00000000000000
346 1    22.64181520000000    99.96158600000000    50.00000000000000
347 1    23.95626080000000   100.27776340000000    50.00000000000000
348 1    24.37002370000000   101.36328130000000    50.00000000000000
349 1    21.68843460000000   101.09385680000000    50.00000000000000
350 1    29.17444230000000   105.83549499999999    50.00000000000000
351 1    27.62254530000000   106.56024169999999    50.00000000000000
352 1    19.90238580000000   103.13070679999998    50.00000000000000
353 1    19.04501150000000   104.11560059999999    50.00000000000000
354 1    12.56456190000000    97.04603580000000    50.00000000000000
355 1    11.66745670000000    98.11672209999999    50.00000000000000
356 1    18.06773950000000    98.01232149999998    50.00000000000000
357 1    18.96484380000000    96.94163519999999    50.00000000000000
358 1    30.09041980000000    92.68987279999999    50.00000000000000
359 1    35.82833480000000    88.75866699999999    50.00000000000000
360 1    30.50073630000000    97.65466309999999    50.00000000000000
361 1    29.31688120000000    97.56707770000000    50.00000000000000
362 1    23.32982260000000    84.19779210000000    50.00000000000000
363 1     4.90007600000000    89.37225340000001    50.00000000000000
364 1     5.40324590000000    90.78471380000001    50.00000000000000
365 1     6.64341020000000    94.68005370000000    50.00000000000000
366 1     6.20566610000000    93.38830569999999    50.00000000000000
367 1    22.43271830000000    85.26847840000001    50.00000000000000
368 1    50.07849499999999    74.94063580000000    50.00000000000000
369 1    51.27506640000000    74.35814669999999    50.00000000000000
370 1    49.68496330000000    84.43528749999999    50.00000000000000
371 1    53.26695250000000    82.40711980000000    50.00000000000000
372 1    52.05899429999999    83.13098150000000    50.00000000000000
373 1    54.46518710000000    83.13947300000000    50.00000000000000
374 1    55.68302919999999    82.38648230000000    50.00000000000000
375 1    32.09852220000000    63.57127759999999    50.00000000000000
376 1    30.80184179999999    63.49478910000000    50.00000000000000
377 1    29.54824450000000    73.04882050000001    50.00000000000000
378 1    45.52459340000000    74.87952420000001    50.00000000000000
379 1    46.59578330000000    73.97619640000001    50.00000000000000
380 1    47.98111339999999    74.69341279999999    50.00000000000000
381 1    47.75032809999999    76.30499270000000    50.00000000000000
382 1    46.33977890000000    76.61751560000000    50.00000000000000
383 1    46.53363420000000    72.81781770000001    50.00000000000000
384 1    46.89868160000000    70.05474090000000    50.00000000000000
385 1    47.95729459999999    70.80782320000000    50.00000000000000
386 1    47.92222220000000    72.04959870000000    50.00000000000000
387 1    27.75923920000000    78.85125739999999    50.00000000000000
388 1    48.42526630000000    85.17471309999999    50.00000000000000
389 1    48.44323350000000    86.50017550000000    50.00000000000000
390 1    37.30574800000000    84.16725159999999    50.00000000000000
391 1    35.27106100000000    86.09372709999998    50.00000000000000
392 1    35.60503770000000    83.97129060000000    50.00000000000000
393 1    34.85216900000000    84.98186499999998    50.00000000000000
394 1    40.40594480000000    63.83786389999999    50.00000000000000
395 1    39.24087140000000    63.03958509999999    50.00000000000000
396 1    39.39208220000000    81.35008240000001    50.00000000000000
397 1    38.89859020000000    78.74060059999999    50.00000000000000
398 1    70.10530089999999    97.25833890000000    50.00000000000000
399 1    70.19122320000000    98.60378270000000    50.00000000000000
400 1    67.74940490000000    98.75984189999998    50.00000000000000
401 1    68.78966520000000    99.36527250000000    50.00000000000000
402 1    72.74221040000000    97.43125920000000    50.00000000000000
403 1    66.54191590000001   100.91579440000000    50.00000000000000
404 1    66.48030860000000    99.47463990000000    50.00000000000000
405 1    60.69056700000000    97.50994110000001    50.00000000000000
406 1    70.63240050000000    94.83706669999998    50.00000000000000
407 1    46.19442370000000    99.10338589999999    50.00000000000000
408 1    61.83758169999999    96.82682800000001    50.00000000000000
409 1    63.00156399999999    94.72880559999999    50.00000000000000
410 1    61.82184980000000    95.37055969999999    50.00000000000000
411 1    61.87772759999999   105.24439240000000    50.00000000000000
412 1    59.57477189999999   103.70888519999998    50.00000000000000
413 1    63.07124330000000   107.50106810000000    50.00000000000000
414 1    64.41459660000000   109.09338380000000    50.00000000000000
415 1    64.22526550000001   108.08137509999999    50.00000000000000
416 1    64.22937779999999   105.25153349999998    50.00000000000000
417 1    59.41291050000000   109.08051300000000    50.00000000000000
418 1    61.97887419999999   108.03730769999999    50.00000000000000
419 1    30.02800750000000   106.37425229999999    50.00000000000000
420 1    33.47394559999999   105.63592529999998    50.00000000000000
421 1    31.20929910000000   104.13774870000000    50.00000000000000
422 1    31.31239890000000   105.75245670000000    50.00000000000000
423 1    32.27009199999999   106.25390630000000    50.00000000000000
424 1    37.93311319999999    99.85801699999999    50.00000000000000
425 1    38.00701520000000   101.28620909999998    50.00000000000000
426 1    32.10321050000000   101.89453899999999    50.00000000000000
427 1    32.17984010000000   103.52991489999999    50.00000000000000
428 1    33.41633230000000   104.04622649999999    50.00000000000000
429 1    36.87765120000000    99.30821229999998    50.00000000000000
430 1    24.86500740000000   106.40655519999999    50.00000000000000
431 1    23.43490220000000   106.04266360000000    50.00000000000000
432 1    24.06905750000000   108.62787629999998    50.00000000000000
433 1    25.13442800000000   107.28728489999999    50.00000000000000