ITEM: TIMESTEP
7550000
ITEM: NUMBER OF ATOMS
5023
ITEM: BOX BOUNDS pp pp pp
-2.8933324775623497e+00 1.1289333247756042e+02
-2.7151606718191745e+00 1.1271516067181929e+02
0.0000000000000000e+00 1.0000000000000000e+02
ITEM: ATOMS id type x y z temp energy
1.000000000000000000e+00 1.000000000000000000e+00 4.079509999999999792e+01 4.263839999999999719e+01 5.064240000000000208e+01 3.082880000000000109e+02 1.732748615570505191e-01
2.000000000000000000e+00 1.000000000000000000e+00 2.213889999999999958e+01 6.837090000000000600e+01 4.765279999999999916e+01 3.031109999999999900e+02 1.813232246015582527e-01
3.000000000000000000e+00 1.000000000000000000e+00 2.270060000000000144e+01 6.957620000000000005e+01 4.808840000000000003e+01 3.089259999999999877e+02 1.823658891880027832e-01
4.000000000000000000e+00 1.000000000000000000e+00 4.340970000000000084e+01 1.012960000000000065e+02 5.160020000000000095e+01 3.077200000000000273e+02 1.820649270868150704e-01
5.000000000000000000e+00 1.000000000000000000e+00 8.468309999999999604e+01 5.779930000000000234e+01 4.890670000000000073e+01 3.091720000000000255e+02 1.802184088054891997e-01
6.000000000000000000e+00 1.000000000000000000e+00 6.510829999999999984e+01 3.027049999999999841e+01 4.890359999999999729e+01 3.088100000000000023e+02 1.793238191609938248e-01
7.000000000000000000e+00 1.000000000000000000e+00 4.001579999999999870e+01 4.385110000000000241e+01 5.054919999999999902e+01 3.093389999999999986e+02 1.679138985292883413e-01
8.000000000000000000e+00 1.000000000000000000e+00 5.980210000000000292e+01 6.756019999999999470e+01 5.093679999999999808e+01 3.090930000000000177e+02 1.852245786147349305e-01
9.000000000000000000e+00 1.000000000000000000e+00 5.996370000000000289e+01 6.613859999999999673e+01 5.076950000000000074e+01 3.136840000000000259e+02 1.851558145417602219e-01
1.000000000000000000e+01 1.000000000000000000e+00 6.993000000000000682e+01 6.696469999999999345e+01 5.062080000000000268e+01 3.075149999999999864e+02 1.841332226641525793e-01
1.100000000000000000e+01 1.000000000000000000e+00 6.876739999999999498e+01 6.609319999999999595e+01 5.081119999999999948e+01 3.121320000000000050e+02 1.846193021592304473e-01
1.200000000000000000e+01 1.000000000000000000e+00 6.516530000000000378e+00 1.117000000000000028e+02 4.981519999999999726e+01 3.153419999999999845e+02 1.703971742556711355e-01
1.300000000000000000e+01 1.000000000000000000e+00 2.682150000000000034e+01 6.377369999999999806e+01 4.825829999999999842e+01 3.138969999999999914e+02 1.815710188061010477e-01
1.400000000000000000e+01 1.000000000000000000e+00 2.785140000000000171e+01 5.257000000000000028e+01 4.928869999999999862e+01 3.095939999999999941e+02 1.823747228616089400e-01
1.500000000000000000e+01 1.000000000000000000e+00 2.713029999999999831e+01 5.382249999999999801e+01 4.920400000000000063e+01 3.076340000000000146e+02 1.812013515844595746e-01
1.600000000000000000e+01 1.000000000000000000e+00 1.702460000000000084e+00 9.574469999999999459e+01 4.949779999999999802e+01 3.057210000000000036e+02 1.825806092358560617e-01
1.700000000000000000e+01 1.000000000000000000e+00 2.555859999999999799e-01 9.553650000000000375e+01 4.934320000000000306e+01 3.063009999999999877e+02 1.831969181962638249e-01
1.800000000000000000e+01 1.000000000000000000e+00 2.051239999999999952e+01 1.005450000000000017e+02 5.067759999999999820e+01 3.123489999999999895e+02 1.828328294783071739e-01
1.900000000000000000e+01 1.000000000000000000e+00 1.912809999999999988e+01 1.003310000000000031e+02 5.044789999999999708e+01 3.092110000000000127e+02 1.813974613583850537e-01
2.000000000000000000e+01 1.000000000000000000e+00 7.275010000000000332e+01 9.831520000000000437e+01 4.708370000000000033e+01 3.092189999999999941e+02 1.611268478210042543e-01
2.100000000000000000e+01 1.000000000000000000e+00 7.150870000000000459e+01 9.826220000000000709e+01 4.780579999999999785e+01 3.058899999999999864e+02 1.735019571930479509e-01
2.200000000000000000e+01 1.000000000000000000e+00 4.466120000000000090e+01 1.019159999999999968e+02 5.125330000000000297e+01 3.066340000000000146e+02 1.810268649930041329e-01
2.300000000000000000e+01 1.000000000000000000e+00 1.040570000000000022e+02 1.824549999999999983e+01 4.987519999999999953e+01 3.086179999999999950e+02 1.837968549790359174e-01
2.400000000000000000e+01 1.000000000000000000e+00 8.994809999999999661e+01 1.624589999999999979e+00 5.041479999999999961e+01 3.102069999999999936e+02 1.820674455710604156e-01
2.500000000000000000e+01 1.000000000000000000e+00 9.060259999999999536e+01 3.157699999999999951e-01 5.029579999999999984e+01 3.081750000000000114e+02 1.822196217534447493e-01
2.600000000000000000e+01 1.000000000000000000e+00 7.807870000000000310e+00 1.111830000000000069e+02 4.959859999999999758e+01 3.111510000000000105e+02 1.689595691400438415e-01
2.700000000000000000e+01 1.000000000000000000e+00 2.000989999999999824e+01 1.371589999999999954e+01 4.967580000000000240e+01 3.094540000000000077e+02 1.816144254836147554e-01
2.800000000000000000e+01 1.000000000000000000e+00 2.053760000000000119e+01 2.692439999999999944e+00 5.027519999999999811e+01 3.045509999999999877e+02 1.844078238307616247e-01
2.900000000000000000e+01 1.000000000000000000e+00 2.855849999999999866e+01 7.876319999999999766e+00 4.982609999999999673e+01 3.080550000000000068e+02 1.829742229687489619e-01
3.000000000000000000e+01 1.000000000000000000e+00 2.719350000000000023e+01 8.381040000000000489e+00 4.985110000000000241e+01 3.121709999999999923e+02 1.836856730771135870e-01
3.100000000000000000e+01 1.000000000000000000e+00 6.572589999999999577e+01 3.262899999999999778e+01 4.901789999999999736e+01 3.110000000000000000e+02 1.765754928930337031e-01
3.200000000000000000e+01 1.000000000000000000e+00 6.472880000000000678e+01 3.161830000000000140e+01 4.879359999999999786e+01 3.035120000000000005e+02 1.808912322254829230e-01
3.300000000000000000e+01 1.000000000000000000e+00 6.295929999999999893e+01 3.329619999999999891e+01 4.857300000000000040e+01 3.080419999999999732e+02 1.766265583305101916e-01
3.400000000000000000e+01 1.000000000000000000e+00 6.334649999999999892e+01 3.197309999999999874e+01 4.871170000000000044e+01 3.118269999999999982e+02 1.806515214229462707e-01
3.500000000000000000e+01 1.000000000000000000e+00 6.702779999999999916e+01 3.239789999999999992e+01 4.953130000000000166e+01 3.076530000000000200e+02 1.826132132837172961e-01
3.600000000000000000e+01 1.000000000000000000e+00 6.959659999999999513e+01 3.175669999999999860e+01 5.057459999999999667e+01 3.094719999999999800e+02 1.839835146039887626e-01
3.700000000000000000e+01 1.000000000000000000e+00 6.942640000000000100e+01 3.565979999999999706e+01 5.103840000000000288e+01 3.058279999999999745e+02 1.747481841026946592e-01
3.800000000000000000e+01 1.000000000000000000e+00 6.984929999999999950e+01 3.424000000000000199e+01 5.130149999999999721e+01 3.110339999999999918e+02 1.773691563583530140e-01
3.900000000000000000e+01 1.000000000000000000e+00 6.810030000000000427e+01 3.605530000000000257e+01 5.050820000000000221e+01 3.075160000000000196e+02 1.685114821122820072e-01
4.000000000000000000e+01 1.000000000000000000e+00 6.736320000000000618e+01 3.495490000000000208e+01 4.991069999999999851e+01 3.069580000000000268e+02 1.807821468283783428e-01
4.100000000000000000e+01 1.000000000000000000e+00 6.908480000000000132e+01 3.312579999999999814e+01 5.067340000000000089e+01 3.074259999999999877e+02 1.854016538601878650e-01
4.200000000000000000e+01 1.000000000000000000e+00 6.782970000000000255e+01 3.352239999999999753e+01 5.007430000000000092e+01 3.082130000000000223e+02 1.834566821182620766e-01
4.300000000000000000e+01 1.000000000000000000e+00 6.605049999999999955e+01 3.960379999999999967e+01 5.032789999999999964e+01 3.097989999999999782e+02 1.826744421198737145e-01
4.400000000000000000e+01 1.000000000000000000e+00 6.761190000000000566e+01 3.752720000000000056e+01 5.054370000000000118e+01 3.119719999999999800e+02 1.694384612948992286e-01
4.500000000000000000e+01 1.000000000000000000e+00 6.622629999999999484e+01 3.813510000000000133e+01 5.032820000000000249e+01 3.057699999999999818e+02 1.792975150254955130e-01
4.600000000000000000e+01 1.000000000000000000e+00 6.000880000000000081e+01 3.709940000000000282e+01 4.928750000000000142e+01 3.074189999999999827e+02 1.829689366623321600e-01
4.700000000000000000e+01 1.000000000000000000e+00 6.120640000000000214e+01 3.794680000000000319e+01 4.956239999999999668e+01 3.077690000000000055e+02 1.817758071638292394e-01
4.800000000000000000e+01 1.000000000000000000e+00 5.697220000000000084e+01 4.406219999999999715e+01 4.982690000000000197e+01 3.124309999999999832e+02 1.810698809531298414e-01
4.900000000000000000e+01 1.000000000000000000e+00 6.368289999999999651e+01 3.804950000000000188e+01 4.989070000000000249e+01 3.034289999999999736e+02 1.814093831216917196e-01
5.000000000000000000e+01 1.000000000000000000e+00 6.505450000000000443e+01 3.747679999999999723e+01 4.992240000000000322e+01 3.060409999999999968e+02 1.809463623060421633e-01
5.100000000000000000e+01 1.000000000000000000e+00 6.254310000000000258e+01 3.598810000000000286e+01 4.912910000000000110e+01 3.086569999999999823e+02 1.738698439911359195e-01
5.200000000000000000e+01 1.000000000000000000e+00 6.252360000000000184e+01 3.728880000000000194e+01 4.959779999999999944e+01 3.104800000000000182e+02 1.804833103723022247e-01
5.300000000000000000e+01 1.000000000000000000e+00 6.473579999999999757e+01 4.031080000000000041e+01 5.016949999999999932e+01 3.050129999999999768e+02 1.837878093872051533e-01
5.400000000000000000e+01 1.000000000000000000e+00 6.354679999999999751e+01 3.951050000000000040e+01 4.997200000000000131e+01 3.050960000000000036e+02 1.813124891703133401e-01
5.500000000000000000e+01 1.000000000000000000e+00 5.979240000000000066e+01 3.994219999999999970e+01 4.970239999999999725e+01 3.077839999999999918e+02 1.813358046365555754e-01
5.600000000000000000e+01 1.000000000000000000e+00 6.107370000000000232e+01 3.937610000000000099e+01 4.979919999999999902e+01 3.105110000000000241e+02 1.823267176621012620e-01
5.700000000000000000e+01 1.000000000000000000e+00 6.226330000000000098e+01 4.017419999999999902e+01 4.993580000000000041e+01 3.052669999999999959e+02 1.830218292768385213e-01
5.800000000000000000e+01 1.000000000000000000e+00 6.854229999999999734e+01 5.515200000000000102e+01 5.074249999999999972e+01 3.097860000000000014e+02 1.824078033824478584e-01
5.900000000000000000e+01 1.000000000000000000e+00 1.854560000000000031e+01 4.141360000000000241e+01 4.912080000000000268e+01 3.161940000000000168e+02 1.814996928086263506e-01
6.000000000000000000e+01 1.000000000000000000e+00 4.225059999999999860e+01 2.905669999999999931e+01 4.952360000000000184e+01 3.047470000000000141e+02 1.847468105803800886e-01
6.100000000000000000e+01 1.000000000000000000e+00 4.596459999999999724e+01 3.296979999999999933e+01 4.734409999999999741e+01 3.107080000000000268e+02 1.714868787988181043e-01
6.200000000000000000e+01 1.000000000000000000e+00 3.867699999999999960e+01 4.382549999999999812e+01 5.022679999999999723e+01 3.111940000000000168e+02 1.758161705786673024e-01
6.300000000000000000e+01 1.000000000000000000e+00 3.805140000000000100e+01 4.513289999999999935e+01 4.997650000000000148e+01 3.018799999999999955e+02 1.819735792480446090e-01
6.400000000000000000e+01 1.000000000000000000e+00 5.084470000000000312e+01 5.659599999999999653e+01 4.950379999999999825e+01 3.098589999999999804e+02 1.815294390412713621e-01
6.500000000000000000e+01 1.000000000000000000e+00 5.215370000000000061e+01 5.601109999999999900e+01 4.950460000000000349e+01 3.075550000000000068e+02 1.813428176909216427e-01
6.600000000000000000e+01 1.000000000000000000e+00 5.888490000000000180e+01 6.382690000000000197e+01 5.076509999999999678e+01 3.070240000000000009e+02 1.827343406899429035e-01
6.700000000000000000e+01 1.000000000000000000e+00 5.879359999999999786e+01 6.526980000000000359e+01 5.079540000000000077e+01 3.123539999999999850e+02 1.834496798666596651e-01
6.800000000000000000e+01 1.000000000000000000e+00 5.769769999999999754e+01 6.295130000000000337e+01 5.059000000000000341e+01 3.107649999999999864e+02 1.825331054885817317e-01
6.900000000000000000e+01 1.000000000000000000e+00 6.408199999999999363e+01 6.138889999999999958e+01 5.085150000000000148e+01 3.034209999999999923e+02 1.836168163009736232e-01
7.000000000000000000e+01 1.000000000000000000e+00 6.427060000000000173e+01 5.994469999999999743e+01 5.078479999999999706e+01 3.100049999999999955e+02 1.846152876415014243e-01
7.100000000000000000e+01 1.000000000000000000e+00 6.639090000000000202e+01 6.452960000000000207e+01 5.098740000000000094e+01 3.026920000000000073e+02 1.841150085887396648e-01
7.200000000000000000e+01 1.000000000000000000e+00 6.517379999999999995e+01 6.365440000000000254e+01 5.098389999999999844e+01 3.052339999999999804e+02 1.840319785885425885e-01
7.300000000000000000e+01 1.000000000000000000e+00 6.529559999999999320e+01 6.217900000000000205e+01 5.099150000000000205e+01 3.026979999999999791e+02 1.837998056939654234e-01
7.400000000000000000e+01 1.000000000000000000e+00 4.628649999999999665e+01 6.404349999999999454e+01 4.990370000000000061e+01 3.046739999999999782e+02 1.796849820045437751e-01
7.500000000000000000e+01 1.000000000000000000e+00 4.494659999999999656e+01 6.465810000000000457e+01 5.004429999999999978e+01 3.093319999999999936e+02 1.803624042652627602e-01
7.600000000000000000e+01 1.000000000000000000e+00 4.482469999999999999e+01 6.608480000000000132e+01 5.030279999999999774e+01 3.083290000000000077e+02 1.805564884013812210e-01
7.700000000000000000e+01 1.000000000000000000e+00 6.977309999999999945e+01 6.839539999999999509e+01 5.051069999999999993e+01 3.094230000000000018e+02 1.851157889743231255e-01
7.800000000000000000e+01 1.000000000000000000e+00 3.757810000000000095e+00 1.126129999999999995e+02 5.006459999999999866e+01 3.050810000000000173e+02 1.847433945662647348e-01
7.900000000000000000e+01 1.000000000000000000e+00 1.179110000000000102e+00 1.121860000000000070e+02 5.023460000000000036e+01 3.105860000000000127e+02 1.778036722967058780e-01
8.000000000000000000e+01 1.000000000000000000e+00 2.100809999999999889e+01 6.582569999999999766e+01 4.673790000000000333e+01 3.061630000000000109e+02 1.821957098963481736e-01
8.100000000000000000e+01 1.000000000000000000e+00 2.538190000000000168e+01 6.367009999999999792e+01 4.787870000000000203e+01 3.070930000000000177e+02 1.808318483364369234e-01
8.200000000000000000e+01 1.000000000000000000e+00 2.263309999999999889e+01 6.347939999999999827e+01 4.715010000000000190e+01 3.066879999999999882e+02 1.809897009581865890e-01
8.300000000000000000e+01 1.000000000000000000e+00 2.045730000000000004e+01 6.449960000000000093e+01 4.655349999999999966e+01 3.094990000000000236e+02 1.810441393918471031e-01
8.400000000000000000e+01 1.000000000000000000e+00 2.123400000000000176e+01 6.329950000000000188e+01 4.680330000000000013e+01 3.135799999999999841e+02 1.802841860682970754e-01
8.500000000000000000e+01 1.000000000000000000e+00 2.757870000000000132e+01 6.252409999999999712e+01 4.850549999999999784e+01 3.064959999999999809e+02 1.815422374050553178e-01
8.600000000000000000e+01 1.000000000000000000e+00 2.899320000000000164e+01 6.263190000000000168e+01 4.850939999999999941e+01 3.086759999999999877e+02 1.825771147186656118e-01
8.700000000000000000e+01 1.000000000000000000e+00 2.975080000000000169e+01 6.141369999999999862e+01 4.867909999999999826e+01 3.064800000000000182e+02 1.807001832712062939e-01
8.800000000000000000e+01 1.000000000000000000e+00 2.714359999999999928e+01 5.130749999999999744e+01 4.941250000000000142e+01 3.070699999999999932e+02 1.828137860265227899e-01
8.900000000000000000e+01 1.000000000000000000e+00 2.780509999999999948e+01 5.505700000000000216e+01 4.912939999999999685e+01 3.100299999999999727e+02 1.805450929445778507e-01
9.000000000000000000e+01 1.000000000000000000e+00 1.297060000000000102e+00 9.813750000000000284e+01 5.015279999999999916e+01 3.118500000000000227e+02 1.832050594683165834e-01
9.100000000000000000e+01 1.000000000000000000e+00 2.229000000000000092e+00 9.712399999999999523e+01 4.970700000000000074e+01 3.093759999999999764e+02 1.816666356152937811e-01
9.200000000000000000e+01 1.000000000000000000e+00 7.321080000000000254e+00 1.007729999999999961e+02 4.985920000000000130e+01 3.065579999999999927e+02 1.814062234932977136e-01
9.300000000000000000e+01 1.000000000000000000e+00 5.911870000000000402e+00 1.005220000000000056e+02 4.991530000000000200e+01 3.041120000000000232e+02 1.809647269347006149e-01
9.400000000000000000e+01 1.000000000000000000e+00 8.796800000000000175e-01 9.315470000000000539e+01 4.861740000000000350e+01 3.054870000000000232e+02 1.800790141148046752e-01
9.500000000000000000e+01 1.000000000000000000e+00 -6.998500000000000554e-02 9.424620000000000175e+01 4.869400000000000261e+01 3.093670000000000186e+02 1.803619787795792406e-01
9.600000000000000000e+01 1.000000000000000000e+00 -1.429900000000000060e-01 9.778969999999999629e+01 5.028130000000000166e+01 3.104630000000000223e+02 1.753198112296150968e-01
9.700000000000000000e+01 1.000000000000000000e+00 -6.687279999999999891e-01 9.654640000000000555e+01 4.980360000000000298e+01 3.084119999999999777e+02 1.830179910719207936e-01
9.800000000000000000e+01 1.000000000000000000e+00 2.131429999999999936e+01 1.111860000000000070e+02 5.135660000000000025e+01 3.079329999999999927e+02 1.726505049514971413e-01
9.900000000000000000e+01 1.000000000000000000e+00 2.079279999999999973e+01 1.097849999999999966e+02 5.135860000000000269e+01 3.063399999999999750e+02 1.772872963789703105e-01
1.000000000000000000e+02 1.000000000000000000e+00 1.857629999999999981e+01 9.896200000000000330e+01 5.046029999999999660e+01 3.117669999999999959e+02 1.818428446888436523e-01
1.010000000000000000e+02 1.000000000000000000e+00 2.567340000000000089e+01 1.003169999999999931e+02 5.146479999999999677e+01 3.114619999999999891e+02 1.837199810514626441e-01
1.020000000000000000e+02 1.000000000000000000e+00 5.496699999999999697e+00 9.909470000000000312e+01 4.986610000000000298e+01 3.099800000000000182e+02 1.816066627139014955e-01
1.030000000000000000e+02 1.000000000000000000e+00 3.627409999999999801e+00 9.746479999999999677e+01 4.967049999999999699e+01 3.095640000000000214e+02 1.819784764012381539e-01
1.040000000000000000e+02 1.000000000000000000e+00 4.080479999999999663e+00 9.880060000000000286e+01 4.989939999999999998e+01 3.075430000000000064e+02 1.814611724879331422e-01
1.050000000000000000e+02 1.000000000000000000e+00 2.227419999999999956e+00 9.338800000000000523e+01 4.899309999999999832e+01 3.077080000000000268e+02 1.806064332236726466e-01
1.060000000000000000e+02 1.000000000000000000e+00 2.635699999999999932e+00 9.472310000000000230e+01 4.935620000000000118e+01 3.093439999999999941e+02 1.823699912618464425e-01
1.070000000000000000e+02 1.000000000000000000e+00 5.275630000000000308e+01 7.310540000000000305e+01 5.244389999999999930e+01 2.991840000000000259e+02 1.793950518518538095e-01
1.080000000000000000e+02 1.000000000000000000e+00 5.144559999999999889e+01 7.374179999999999779e+01 5.248830000000000240e+01 3.074889999999999759e+02 1.821541655988866693e-01
1.090000000000000000e+02 1.000000000000000000e+00 4.892490000000000094e+01 7.495850000000000080e+01 5.247930000000000206e+01 3.060720000000000027e+02 1.798375753933755539e-01
1.100000000000000000e+02 1.000000000000000000e+00 3.436280000000000001e+01 8.396129999999999427e+01 5.271569999999999823e+01 3.058519999999999754e+02 1.800141637281133522e-01
1.110000000000000000e+02 1.000000000000000000e+00 3.707889999999999731e+01 8.432200000000000273e+01 5.336880000000000024e+01 3.069759999999999991e+02 1.763665835683647376e-01
1.120000000000000000e+02 1.000000000000000000e+00 3.854189999999999827e+01 8.407170000000000698e+01 5.361580000000000013e+01 3.105149999999999864e+02 1.754890781862862570e-01
1.130000000000000000e+02 1.000000000000000000e+00 5.706550000000000011e+01 1.074629999999999939e+02 4.919669999999999987e+01 3.121229999999999905e+02 1.816549427103869574e-01
1.140000000000000000e+02 1.000000000000000000e+00 6.326930000000000121e+01 1.083880000000000052e+02 4.911710000000000065e+01 3.051870000000000118e+02 1.829757059395334118e-01
1.150000000000000000e+02 1.000000000000000000e+00 2.141779999999999973e+01 9.945029999999999859e+01 5.086180000000000234e+01 3.077060000000000173e+02 1.818841821645741375e-01
1.160000000000000000e+02 1.000000000000000000e+00 2.287280000000000157e+01 9.979500000000000171e+01 5.093240000000000123e+01 3.028179999999999836e+02 1.819522126500006387e-01
1.170000000000000000e+02 1.000000000000000000e+00 2.751920000000000144e+01 1.019410000000000025e+02 5.185819999999999652e+01 3.076820000000000164e+02 1.841807576976311756e-01
1.180000000000000000e+02 1.000000000000000000e+00 2.705420000000000158e+01 1.005829999999999984e+02 5.171829999999999927e+01 3.082730000000000246e+02 1.834020697604155092e-01
1.190000000000000000e+02 1.000000000000000000e+00 2.946740000000000137e+01 1.037780000000000058e+02 5.215859999999999985e+01 3.062730000000000246e+02 1.757303432298303603e-01
1.200000000000000000e+02 1.000000000000000000e+00 2.985630000000000095e+01 1.011449999999999960e+02 5.236950000000000216e+01 3.091549999999999727e+02 1.814212850495054707e-01
1.210000000000000000e+02 1.000000000000000000e+00 2.899449999999999861e+01 1.022900000000000063e+02 5.205890000000000128e+01 3.108210000000000264e+02 1.813902362802327084e-01
1.220000000000000000e+02 1.000000000000000000e+00 3.123999999999999844e+01 1.012519999999999953e+02 5.263940000000000197e+01 3.075230000000000246e+02 1.754114088424033602e-01
1.230000000000000000e+02 1.000000000000000000e+00 5.811339999999999861e+01 1.120199999999999960e+02 4.744619999999999749e+01 3.071499999999999773e+02 1.693575351026541664e-01
1.240000000000000000e+02 1.000000000000000000e+00 5.581530000000000058e+01 1.081850000000000023e+02 4.914820000000000277e+01 3.119089999999999918e+02 1.814210915537168844e-01
1.250000000000000000e+02 1.000000000000000000e+00 8.723999999999999488e+01 5.648089999999999833e+01 4.881620000000000203e+01 3.061109999999999900e+02 1.817409833401324726e-01
1.260000000000000000e+02 1.000000000000000000e+00 8.474120000000000630e+01 5.641389999999999816e+01 4.907430000000000092e+01 3.068589999999999804e+02 1.802696316482169658e-01
1.270000000000000000e+02 1.000000000000000000e+00 8.602779999999999916e+01 5.574459999999999837e+01 4.900809999999999889e+01 3.035989999999999895e+02 1.800104177742599398e-01
1.280000000000000000e+02 1.000000000000000000e+00 8.612319999999999709e+01 5.435000000000000142e+01 4.922619999999999862e+01 3.129610000000000127e+02 1.806330576173328650e-01
1.290000000000000000e+02 1.000000000000000000e+00 8.492919999999999447e+01 5.359259999999999735e+01 4.958509999999999707e+01 3.032069999999999936e+02 1.810644821672615368e-01
1.300000000000000000e+02 1.000000000000000000e+00 7.120180000000000575e+01 6.627790000000000248e+01 5.040800000000000125e+01 3.043419999999999845e+02 1.826908466301896961e-01
1.310000000000000000e+02 1.000000000000000000e+00 7.227370000000000516e+01 6.707800000000000296e+01 4.981660000000000110e+01 3.114780000000000086e+02 1.766203301803545567e-01
1.320000000000000000e+02 1.000000000000000000e+00 7.407059999999999889e+01 6.211500000000000199e+01 4.969109999999999872e+01 3.098799999999999955e+02 1.794073655671701017e-01
1.330000000000000000e+02 1.000000000000000000e+00 8.355270000000000152e+01 5.567430000000000234e+01 4.935159999999999769e+01 3.067500000000000000e+02 1.807337681907918159e-01
1.340000000000000000e+02 1.000000000000000000e+00 8.365510000000000446e+01 5.424320000000000164e+01 4.956620000000000203e+01 3.049580000000000268e+02 1.808449136683364378e-01
1.350000000000000000e+02 1.000000000000000000e+00 8.483509999999999707e+01 3.692840000000000344e+01 5.075860000000000127e+01 3.077919999999999732e+02 1.716776550325855577e-01
1.360000000000000000e+02 1.000000000000000000e+00 9.540479999999999450e+01 4.844519999999999982e+01 5.004639999999999844e+01 3.067579999999999814e+02 1.813462555913302188e-01
1.370000000000000000e+02 1.000000000000000000e+00 9.667019999999999413e+01 4.782220000000000226e+01 5.009499999999999886e+01 3.128170000000000073e+02 1.821495230353058492e-01
1.380000000000000000e+02 1.000000000000000000e+00 9.673319999999999652e+01 4.641649999999999920e+01 5.022679999999999723e+01 3.047320000000000277e+02 1.820967463492156047e-01
1.390000000000000000e+02 1.000000000000000000e+00 1.025570000000000022e+02 1.834140000000000015e+01 4.995580000000000354e+01 3.045899999999999750e+02 1.834081585905466272e-01
1.400000000000000000e+02 1.000000000000000000e+00 1.017169999999999987e+02 1.724050000000000082e+01 4.974849999999999994e+01 3.135210000000000150e+02 1.826153127147912003e-01
1.410000000000000000e+02 1.000000000000000000e+00 9.531529999999999347e+01 1.888960000000000150e+01 5.014569999999999794e+01 3.051190000000000282e+02 1.822008559116258253e-01
1.420000000000000000e+02 1.000000000000000000e+00 9.592210000000000036e+01 1.760399999999999920e+01 5.003730000000000189e+01 3.078620000000000232e+02 1.822941888079172290e-01
1.430000000000000000e+02 1.000000000000000000e+00 6.873659999999999570e+01 -1.441969999999999974e+00 5.000549999999999784e+01 3.103799999999999955e+02 1.805033782890349547e-01
1.440000000000000000e+02 1.000000000000000000e+00 7.008079999999999643e+01 -8.392929999999999557e-01 5.010260000000000247e+01 3.109889999999999759e+02 1.830213681326645636e-01
1.450000000000000000e+02 1.000000000000000000e+00 8.768410000000000082e+01 -2.130920000000000147e+00 5.026460000000000150e+01 3.066070000000000277e+02 1.755023150688616029e-01
1.460000000000000000e+02 1.000000000000000000e+00 9.045839999999999748e+01 -2.198150000000000048e+00 4.995720000000000027e+01 3.054309999999999832e+02 1.837571491700836779e-01
1.470000000000000000e+02 1.000000000000000000e+00 8.840160000000000196e+01 -8.768749999999999600e-01 5.041680000000000206e+01 3.075389999999999873e+02 1.827873842265115845e-01
1.480000000000000000e+02 1.000000000000000000e+00 8.983629999999999427e+01 -9.188380000000000436e-01 5.020239999999999725e+01 3.081850000000000023e+02 1.817485059913459267e-01
1.490000000000000000e+02 1.000000000000000000e+00 8.638660000000000139e+01 -2.249969999999999803e+00 5.037369999999999948e+01 3.018469999999999800e+02 1.249122352545436326e-01
1.500000000000000000e+02 1.000000000000000000e+00 8.781820000000000448e+01 4.167029999999999901e-01 5.077369999999999806e+01 3.104409999999999741e+02 1.809337577432109934e-01
1.510000000000000000e+02 1.000000000000000000e+00 8.854559999999999320e+01 1.676949999999999941e+00 5.057399999999999807e+01 3.087629999999999768e+02 1.821785689852352119e-01
1.520000000000000000e+02 1.000000000000000000e+00 1.035420000000000016e+02 1.336899999999999977e+01 4.881600000000000250e+01 3.090020000000000095e+02 1.807280391418875920e-01
1.530000000000000000e+02 1.000000000000000000e+00 1.023610000000000042e+02 1.595190000000000019e+01 4.941530000000000200e+01 3.162909999999999968e+02 1.818385818236302187e-01
1.540000000000000000e+02 1.000000000000000000e+00 9.722880000000000678e+01 1.502149999999999963e+01 5.001680000000000348e+01 3.051499999999999773e+02 1.808112199810910092e-01
1.550000000000000000e+02 1.000000000000000000e+00 9.783249999999999602e+01 1.372279999999999944e+01 4.991660000000000252e+01 3.066299999999999955e+02 1.815462714689547730e-01
1.560000000000000000e+02 1.000000000000000000e+00 1.037920000000000016e+02 7.139179999999999637e+00 4.895879999999999654e+01 3.022230000000000132e+02 1.797935952044043828e-01
1.570000000000000000e+02 1.000000000000000000e+00 1.052129999999999939e+02 7.033649999999999736e+00 4.884349999999999881e+01 3.048860000000000241e+02 1.795080031294865874e-01
1.580000000000000000e+02 1.000000000000000000e+00 1.058400000000000034e+02 5.756920000000000037e+00 4.903949999999999676e+01 3.108020000000000209e+02 1.736484750435854096e-01
1.590000000000000000e+02 1.000000000000000000e+00 1.051250000000000000e+02 4.568290000000000184e+00 4.930879999999999797e+01 3.049329999999999927e+02 1.796365177581879524e-01
1.600000000000000000e+02 1.000000000000000000e+00 1.126129999999999995e+02 1.262489999999999890e+00 5.016700000000000159e+01 3.065319999999999823e+02 1.751154575488177434e-01
1.610000000000000000e+02 1.000000000000000000e+00 1.123100000000000023e+02 2.658920000000000172e+00 4.994350000000000023e+01 3.074350000000000023e+02 1.810922789133991295e-01
1.620000000000000000e+02 1.000000000000000000e+00 1.108529999999999944e+02 3.115800000000000125e+00 4.980469999999999686e+01 3.019800000000000182e+02 1.792621541614440595e-01
1.630000000000000000e+02 1.000000000000000000e+00 1.107030000000000030e+02 4.555390000000000050e+00 4.961280000000000001e+01 3.070600000000000023e+02 1.800761970971292703e-01
1.640000000000000000e+02 1.000000000000000000e+00 6.271139999999999937e+00 -2.315609999999999946e+00 4.971179999999999666e+01 3.055880000000000223e+02 1.810005606515913412e-01
1.650000000000000000e+02 1.000000000000000000e+00 1.401479999999999926e+01 -2.155400000000000205e+00 4.878349999999999653e+01 3.099730000000000132e+02 1.209722512192452637e-01
1.660000000000000000e+02 1.000000000000000000e+00 7.673170000000000268e-01 -3.729279999999999817e-01 5.000079999999999814e+01 3.092210000000000036e+02 1.847971902044219517e-01
1.670000000000000000e+02 1.000000000000000000e+00 -1.610330000000000095e-01 5.343799999999999883e+00 4.973040000000000305e+01 3.079420000000000073e+02 1.825158911177800769e-01
1.680000000000000000e+02 1.000000000000000000e+00 1.695309999999999917e+01 1.125789999999999935e+02 4.970280000000000342e+01 3.062930000000000064e+02 1.613842327428365586e-01
1.690000000000000000e+02 1.000000000000000000e+00 1.622850000000000037e+01 -1.796850000000000058e+00 4.924629999999999797e+01 3.030230000000000246e+02 1.165023523774494779e-01