ITEM: TIMESTEP
0
ITEM: NUMBER OF ATOMS
5023
ITEM: BOX BOUNDS pp pp pp
-2.8933324775623497e+00 1.1289333247756042e+02
-2.7151606718191745e+00 1.1271516067181929e+02
0.0000000000000000e+00 1.0000000000000000e+02
ITEM: ATOMS id type x y z f_5
2402 1 2.32843 -2.37584 49.8875 0
541 1 4.86479 -1.88194 49.7681 0
164 1 6.21961 -2.27414 49.4993 0
1327 1 7.36253 -1.3557 49.3638 0
1326 1 8.69474 -1.91238 49.1337 0
1322 1 11.2667 -1.46171 48.8786 0
165 1 13.9635 -2.18172 48.579 0
169 1 16.2231 -1.9025 48.9689 0
166 1 0.745148 -0.395188 49.9724 0
780 1 3.21306 0.0330961 49.8196 0
540 1 2.09086 -0.911363 49.8688 0
779 1 4.59423 -0.442853 49.7654 0
1328 1 7.09285 0.0287481 49.4903 0
1324 1 9.52761 0.460473 49.1659 0
1325 1 9.85726 -1.01311 49.0446 0
1321 1 12.2969 -0.419005 48.8165 0
244 1 13.6495 -0.890971 48.6969 0
1517 1 14.6824 0.00827948 48.865 0
1512 1 15.9823 -0.582233 48.9924 0
1732 1 -0.778678 1.62369 49.9105 0
1728 1 1.67247 1.9426 49.9599 0
543 1 0.54129 1.09137 49.9378 0
1729 1 3.03182 1.4691 49.9761 0
778 1 5.71873 0.495952 49.7671 0
4308 1 5.45139 1.9192 49.8514 0
1323 1 8.16444 0.991257 49.3797 0
1319 1 10.6423 1.39936 49.2255 0
1320 1 12.0266 0.970973 49.0688 0
245 1 13.0908 1.8296 49.233 0
1516 1 14.4583 1.36857 49.1617 0
1731 1 -2.35615 3.58608 49.7063 0
1730 1 -1.00658 3.04054 49.8668 0
1727 1 1.44196 3.42134 49.9942 0
4309 1 4.1069 2.43385 49.9748 0
4305 1 6.57476 2.85973 49.818 0
777 1 7.93033 2.40924 49.5187 0
1744 1 9.0714 3.32897 49.5787 0
1742 1 10.3929 2.85225 49.5008 0
785 1 12.8692 3.23476 49.4638 0
1515 1 15.6128 2.14797 49.4149 0
782 1 15.4124 3.5659 49.5165 0
781 1 -2.58946 5.0002 49.5865 0
542 1 0.106994 3.97468 49.8504 0
1743 1 8.85958 4.75474 49.8668 0
1741 1 11.5054 3.74358 49.5436 0
2835 1 11.335 5.12834 49.7439 0
786 1 14.055 4.06956 49.5979 0
246 1 -1.51141 5.9162 49.7247 0
167 1 -0.113909 5.41493 49.8668 0
2834 1 9.99217 5.63376 49.9316 0
2838 1 12.4513 6.01401 49.8464 0
1738 1 13.8288 5.46926 49.7698 0
1740 1 14.9115 6.38064 49.812 0
783 1 16.3028 5.83408 49.7028 0
4320 1 -1.71795 7.37857 49.7272 0
4321 1 -0.602929 8.26588 49.9154 0
2837 1 12.2271 7.415 49.9096 0
1737 1 13.3645 8.30931 49.9405 0
1739 1 14.715 7.79993 49.8853 0
4319 1 -0.840968 9.68744 49.8979 0
1520 1 15.8696 8.69426 49.8105 0
3702 1 -2.34398 11.6638 49.872 0
4317 1 -2.16802 10.2678 49.7223 0
1735 1 14.2329 10.6651 49.9779 0
1519 1 15.6429 10.1335 49.8687 0
4882 1 -2.8492 -1.54821 50.4465 0
4021 1 -0.397092 -1.30374 50.1026 0
4452 1 -1.70997 -0.684693 50.234 0
4453 1 -1.91675 0.768597 50.0764 0
2832 1 2.49204 4.36312 50.1565 0
4310 1 3.88027 3.87498 50.0815 0
4307 1 4.94842 4.80749 50.0563 0
4306 1 6.35576 4.31308 50.0085 0
3691 1 7.51435 5.20134 50.0403 0
789 1 0.930925 6.35635 50.0807 0
3693 1 3.42682 6.70682 50.1571 0
2831 1 2.29745 5.82661 50.1449 0
3696 1 4.75633 6.19873 50.1926 0
3692 1 7.24618 6.63048 50.1919 0
2849 1 0.770875 7.74506 50.0984 0
3694 1 3.25234 8.16891 50.1415 0
3698 1 5.91645 7.10674 50.2957 0
787 1 8.41543 7.57396 50.2258 0
2833 1 9.74017 7.04383 50.0355 0
2836 1 10.8851 7.96105 50.0093 0
2848 1 1.66588 10.0634 50.3928 0
2850 1 1.91091 8.64654 50.1986 0
3695 1 4.34932 9.0744 50.3179 0
3697 1 5.71099 8.55894 50.3507 0
1754 1 6.86186 9.42803 50.4967 0
788 1 8.21783 8.94668 50.4642 0
248 1 9.32587 9.82035 50.527 0
247 1 10.6813 9.36402 50.3106 0
1736 1 13.0862 9.72632 50.0927 0
3701 1 0.294211 10.5614 50.3148 0
1746 1 2.75985 10.9714 50.4914 0
1755 1 4.10553 10.4787 50.4963 0
1761 1 5.27453 11.3564 50.7157 0
1762 1 6.60499 10.8509 50.7426 0
4146 1 7.72958 11.7044 50.9427 0
4145 1 9.10738 11.2352 50.7747 0
1734 1 11.8204 10.2663 50.3451 0
3515 1 11.6076 11.6495 50.5391 0
4646 1 15.1698 25.9737 48.3737 0
1733 1 13.9973 12.0937 49.9753 0
1521 1 15.1717 12.9867 49.9551 0
2584 1 16.0385 15.2972 49.919 0
2580 1 15.8283 16.7148 49.904 0
599 1 14.0925 18.6561 49.9817 0
602 1 15.2039 19.5566 49.8219 0
1758 1 12.4553 20.6297 49.9569 0
601 1 14.9517 20.9408 49.642 0
249 1 10.8262 22.4993 49.9347 0
4324 1 13.3254 22.8364 49.375 0
600 1 13.599 21.4301 49.6573 0
1498 1 15.9912 21.8095 49.3128 0
4330 1 9.19005 24.4429 49.7505 0
4329 1 9.50596 23.0304 49.9726 0
4322 1 11.9732 23.3624 49.5313 0
4325 1 14.3777 23.7768 49.1002 0
1775 1 15.7689 23.2101 49.0999 0
4332 1 7.8522 24.9579 49.8845 0
3723 1 10.2941 25.2613 49.3105 0
4323 1 11.6591 24.7957 49.3203 0
4327 1 12.758 25.6839 48.935 0
4326 1 14.0562 25.1345 48.7706 0
3740 1 -1.23943 12.4966 50.2733 0
3741 1 0.0630114 11.9119 50.4802 0
3739 1 1.19088 12.8559 50.7606 0
2859 1 2.51988 12.3966 50.6701 0
2860 1 3.66088 13.3003 50.839 0
1764 1 5.00066 12.8031 50.8844 0
4144 1 7.49947 13.1422 50.9349 0
4148 1 10.2451 12.1383 50.7178 0
3514 1 12.7191 12.6002 50.2363 0
3742 1 -1.46306 13.8867 50.613 0
3704 1 -2.8028 14.4648 50.494 0
4340 1 -0.378467 14.7912 50.9344 0
4338 1 0.904324 14.2503 50.9023 0
3749 1 3.41252 14.7439 50.9986 0
1763 1 6.10033 13.6819 50.988 0
4147 1 8.62618 14.0766 50.8982 0
4149 1 10.0143 13.5395 50.7534 0
3516 1 11.1058 14.4865 50.5969 0
3513 1 12.4331 14.0369 50.309 0
2585 1 14.9422 14.4008 50.0042 0
4343 1 -0.594872 16.2251 51.1189 0
4339 1 2.03713 15.1675 51.0676 0
3750 1 4.55661 15.6125 51.1115 0
2863 1 5.918 15.0817 51.0279 0
2862 1 7.02202 16.0038 51.0251 0
2573 1 8.36869 15.485 50.8721 0
3522 1 9.499 16.41 50.8036 0
3521 1 10.8596 15.9309 50.679 0
2582 1 13.5857 14.9227 50.1312 0
2583 1 13.326 16.345 50.2064 0
2851 1 -2.01619 16.7 51.1552 0
2839 1 -2.20223 18.0665 51.4562 0
4342 1 0.466629 17.1161 51.264 0
4341 1 1.82609 16.5684 51.1871 0
3747 1 2.92628 17.5383 51.1684 0
3748 1 4.27954 17.0035 51.1191 0
3743 1 5.40655 17.9301 51.0245 0
2861 1 6.77757 17.4386 51.0134 0
3519 1 9.20105 17.7841 50.7383 0
3518 1 11.9885 16.8345 50.4385 0
2581 1 14.4702 17.241 50.044 0
2840 1 -1.13721 18.9998 51.4993 0
1745 1 0.28019 18.5229 51.3915 0
2845 1 1.34938 19.4531 51.3709 0
3745 1 2.68259 18.9563 51.1385 0
3744 1 5.09077 19.3886 50.913 0
1756 1 7.88129 18.3564 50.8139 0
3517 1 10.3059 18.7368 50.4888 0
3520 1 11.6727 18.292 50.432 0
1759 1 12.7356 19.2254 50.1218 0
2846 1 1.16394 20.8749 51.4237 0
3746 1 3.73306 19.8784 50.9713 0
3735 1 6.21513 20.2955 50.6652 0
2858 1 7.61527 19.7681 50.6233 0
2857 1 8.63082 20.7014 50.3298 0
1760 1 9.99696 20.2007 50.3155 0
1757 1 11.1168 21.0963 50.0892 0
2843 1 -0.454336 22.7992 51.5364 0
2847 1 2.23951 21.8511 51.1217 0
3737 1 3.56127 21.3575 50.9373 0
3738 1 4.65781 22.2434 50.6543 0
3736 1 5.94658 21.6989 50.5377 0
4331 1 7.0458 22.6393 50.2955 0
4328 1 8.40866 22.1484 50.1806 0
3700 1 0.567735 23.7386 51.2199 0
3699 1 1.91443 23.25 50.9907 0
4311 1 3.02031 24.1613 50.7181 0
4312 1 4.37474 23.6548 50.5433 0
4333 1 6.79349 24.0465 50.1276 0
1747 1 -2.18284 24.7052 51.4842 0
3705 1 0.28385 25.1246 51.1401 0
3707 1 -1.11601 25.6809 51.2893 0
3706 1 1.35521 26.0819 50.7223 0
4315 1 2.70724 25.5895 50.6155 0
4314 1 5.13748 25.9999 50.161 0
4313 1 5.43735 24.5826 50.2675 0
2841 1 -2.64241 20.9477 51.7594 0
2842 1 -1.28816 20.4321 51.6584 0
2844 1 -0.13857 21.3815 51.6142 0
1749 1 -1.80019 23.2945 51.5942 0
4649 1 14.8859 27.333 47.9599 0
4335 1 10.8113 28.8358 48.3157 0
4644 1 13.3073 29.236 47.7301 0
4645 1 13.5355 27.8391 48.0906 0
4648 1 15.9731 28.1653 47.5893 0
3728 1 9.16595 30.8614 48.1765 0
4336 1 11.9473 29.6147 47.8035 0
3725 1 11.6191 30.941 47.4565 0
4642 1 14.3779 30.1682 47.4546 0
4643 1 15.6855 29.5685 47.3035 0
3720 1 7.85009 31.5574 48.343 0
3727 1 10.3348 31.5531 47.6179 0
1788 1 12.7038 31.8428 47.1386 0
4140 1 14.0883 31.6042 47.2485 0
3717 1 6.13148 33.4399 48.2638 0
3719 1 7.54997 32.9915 48.0277 0
2856 1 8.43555 34.0803 47.5476 0
2882 1 10.6277 33.0143 47.3495 0
2880 1 12.0623 33.102 47.0802 0
1787 1 14.2433 34.1574 47.3881 0
4141 1 14.9006 32.8528 47.308 0
4142 1 16.3419 32.8857 47.2747 0
2887 1 5.73092 34.8114 48.227 0
2886 1 6.61313 35.7214 47.738 0
1784 1 7.87794 35.3877 47.3502 0
2883 1 9.83668 34.1657 47.4427 0
3756 1 10.6199 35.415 47.3677 0
2881 1 12.7987 34.3016 47.1935 0
3752 1 12.0659 35.4814 47.3874 0
3482 1 15.0127 35.4017 47.6282 0
2889 1 6.48947 37.131 48.0722 0
1783 1 8.58127 36.6449 47.3698 0
3755 1 9.98891 36.6633 47.4953 0
3751 1 12.7999 36.6754 47.7362 0
3484 1 14.2578 36.6329 47.807 0
1782 1 7.79283 37.8259 47.8453 0
3753 1 10.6472 37.8823 47.985 0
3754 1 12.0751 37.8643 48.0313 0
3485 1 14.9425 37.8276 48.2592 0
3483 1 16.3861 37.7635 48.3516 0
1599 1 8.35097 39.0533 48.3761 0
1600 1 9.8882 38.9945 48.4082 0
3732 1 6.22496 26.8912 49.7746 0
3733 1 7.59989 26.3497 49.6582 0
3734 1 8.63665 27.2276 49.2544 0
4334 1 11.0592 27.4731 48.6158 0
3724 1 9.99682 26.6537 49.0749 0
4337 1 12.4614 27.0166 48.5805 0
3722 1 4.61156 28.881 49.6088 0
3731 1 5.95693 28.3083 49.4869 0
3729 1 7.00128 29.1947 49.0933 0
3730 1 8.3733 28.6376 49.0189 0
3710 1 1.8881 29.7765 49.894 0
1750 1 2.93454 30.7143 49.5628 0
2855 1 4.25883 30.2511 49.3807 0
3718 1 6.73157 30.6452 48.7915 0
3726 1 9.4467 29.4457 48.493 0
1751 1 2.65759 32.1647 49.5016 0
3716 1 5.07374 32.5533 48.7384 0
3715 1 5.3783 31.1789 49.0703 0
803 1 1.05001 34.1098 49.6084 0
1753 1 1.35267 32.6936 49.7685 0
1790 1 3.71634 33.0569 49.1194 0
2870 1 -0.315687 34.6597 49.7734 0
1789 1 3.40249 34.4583 49.0587 0
804 1 2.13686 34.9936 49.3434 0
2884 1 4.45579 35.2976 48.6517 0
2893 1 -1.88119 36.6848 49.9331 0
2895 1 -0.558243 36.0484 49.7536 0
2894 1 0.59676 36.929 49.6719 0
1791 1 1.84543 36.3869 49.4013 0
1792 1 2.98457 37.2562 49.2219 0
2885 1 4.23743 36.7341 48.851 0
2891 1 0.484454 38.3575 49.8647 0
2659 1 2.81263 38.6594 49.3729 0
2888 1 5.35426 37.672 48.6034 0
2661 1 1.61766 39.2667 49.7873 0
3595 1 3.93501 39.5362 49.2543 0
3596 1 5.25176 39.0541 48.8704 0
3597 1 6.15572 40.1703 48.9759 0
2694 1 7.56293 40.1643 48.8199 0
2702 1 10.5297 40.198 48.8267 0
2705 1 11.9693 40.2047 48.9388 0
1786 1 12.7498 39.0872 48.5054 0
2515 1 14.1958 39.0303 48.5324 0
2517 1 16.3118 40.1667 49.0715 0
2516 1 14.8881 40.1942 49.0441 0
2854 1 -2.76485 27.6171 51.282 0
3708 1 -1.38389 27.1267 51.0474 0
3711 1 1.04959 27.463 50.4632 0
4316 1 3.77356 26.4772 50.2763 0
3712 1 -0.314753 27.9654 50.6415 0
3709 1 2.16002 28.3882 50.1191 0
3721 1 3.52772 27.8825 50.003 0
2852 1 -1.87212 29.9769 50.7071 0
3714 1 -0.545783 29.4075 50.4612 0
3713 1 0.483947 30.3312 50.0711 0
1773 1 -2.17033 31.4232 50.452 0
1774 1 -1.12623 32.3683 50.137 0
1752 1 0.267839 31.7733 50.0454 0
2871 1 -1.39863 33.779 50.0254 0
2872 1 -2.80374 34.3382 50.1812 0
2892 1 -2.03941 38.0881 50.0919 0
2890 1 -0.865309 38.9612 50.0178 0
798 1 -0.993077 40.4077 50.2177 0
3598 1 3.94295 40.9525 49.5872 0
3599 1 5.40863 41.4107 49.3975 0
2692 1 8.36941 41.399 49.1766 0
2701 1 9.79 41.3852 49.2631 0
2704 1 12.6928 41.4105 49.3332 0
1785 1 14.1579 41.3919 49.3296 0
2695 1 6.07153 42.6267 49.7349 0
2693 1 7.57117 42.5815 49.5768 0
2696 1 8.33835 43.7638 49.8888 0
2697 1 9.78808 43.768 49.9578 0
2700 1 10.4939 42.5822 49.6908 0
2703 1 11.9954 42.5996 49.696 0
802 1 16.3245 42.5225 49.7693 0
800 1 14.8775 42.5745 49.706 0
799 1 -2.33561 40.9691 50.3326 0
1583 1 0.222032 41.2205 50.2737 0
2660 1 1.52415 40.6678 50.0708 0
2658 1 2.67957 41.5474 50.0132 0
1581 1 -2.43152 42.4264 50.5147 0
1582 1 -1.26575 43.2897 50.5131 0
1584 1 0.0553449 42.6626 50.3866 0
2663 1 1.23204 43.5085 50.4435 0
2664 1 2.63924 42.9624 50.2441 0
1601 1 12.7497 43.7526 50.0383 0
2651 1 -1.39282 44.6681 50.7564 0
2649 1 -2.7016 45.2734 50.7808 0
2662 1 0.992288 44.858 50.7314 0
4216 1 3.42716 45.2071 50.7355 0
4220 1 3.83782 43.8565 50.3113 0
4219 1 5.33529 43.783 50.1669 0
4215 1 6.18505 45.0277 50.4218 0
3602 1 7.65459 45.0207 50.227 0
2699 1 10.5608 44.985 50.2856 0
1602 1 12.0063 44.9654 50.3058 0
253 1 14.1986 43.79 50.05 0
252 1 14.934 44.9789 50.3998 0
250 1 16.3581 44.9147 50.3541 0
2648 1 -2.83343 46.7361 50.9113 0
2650 1 -0.263908 45.4681 51.0055 0
2654 1 -0.354303 46.9483 51.1824 0
3581 1 2.1189 45.6565 50.9045 0
4217 1 4.18253 46.3314 51.0077 0
4218 1 5.58898 46.2931 50.8549 0
3601 1 8.43683 46.2262 50.506 0
2698 1 9.84685 46.177 50.5437 0
2687 1 12.7449 46.2064 50.5742 0
2686 1 14.1678 46.1934 50.586 0
2655 1 -1.66394 47.5456 51.0963 0
2652 1 0.834455 47.7881 51.3179 0
3580 1 2.07854 47.1066 51.2347 0
4214 1 3.48683 47.5583 51.2913 0
4211 1 6.27504 47.4989 50.9736 0
3600 1 7.69903 47.4574 50.8451 0
1598 1 10.6065 47.3992 50.8164 0
2689 1 12.0415 47.3857 50.7323 0
2688 1 14.9314 47.4025 50.7339 0
2878 1 16.3819 47.4143 50.6333 0
2657 1 -1.8408 48.9208 51.2885 0
2656 1 -0.678796 49.7854 51.5566 0
4213 1 4.1015 48.8018 51.3956 0
4212 1 5.55227 48.7858 51.25 0
2671 1 6.36277 50.0014 51.3123 0
2681 1 7.75056 49.9241 51.1207 0
2678 1 8.43853 48.6562 50.9609 0
2677 1 9.8797 48.6655 50.9161 0
2676 1 10.6005 49.8585 50.9756 0
2690 1 12.7619 48.5959 50.8566 0
2684 1 12.0508 49.8701 50.9223 0
2691 1 14.2457 48.6172 50.8194 0
2685 1 14.9678 49.8393 50.9156 0
2670 1 5.65106 51.2306 51.4961 0
2680 1 8.48843 51.1604 51.0547 0
2679 1 9.89714 51.1024 50.8969 0
2683 1 12.7731 51.0655 50.874 0
2682 1 14.2472 51.059 50.8682 0
3587 1 6.4071 52.4459 51.3254 0
3586 1 7.79833 52.4 51.1119 0
1596 1 10.6279 52.3259 50.7074 0
1597 1 12.0588 52.339 50.7154 0
797 1 14.8816 52.2977 50.5791 0
1780 1 16.3541 52.342 50.4845 0
3585 1 6.40946 54.912 51.1011 0
3582 1 5.71611 53.6936 51.384 0
3584 1 7.78011 54.8544 50.7893 0
1588 1 9.94911 53.6344 50.7137 0
3583 1 8.50236 53.6302 50.8562 0
1587 1 10.613 54.8304 50.469 0
2868 1 12.7576 53.5994 50.5324 0
2867 1 12.0724 54.8756 50.3281 0
2869 1 14.1704 53.5439 50.391 0
2865 1 14.8932 54.7578 50.146 0
1771 1 16.2943 54.8227 50.0817 0
2653 1 0.741925 49.1751 51.5803 0
2668 1 1.91942 50.1017 51.782 0
2667 1 3.40148 50.0268 51.6142 0
2672 1 -0.893189 51.1904 51.7737 0
3591 1 1.49049 51.3804 52.097 0
2666 1 4.23224 51.2283 51.6487 0
2675 1 -2.12189 51.8479 51.6735 0
2674 1 -2.21269 53.322 51.6251 0
3592 1 0.187678 51.9937 52.0149 0
3590 1 2.25569 52.5745 52.1706 0
2669 1 3.63122 52.5004 51.927 0
3594 1 0.186156 53.4065 52.0954 0
2673 1 -1.04793 54.1311 51.8119 0
3593 1 1.53206 53.793 52.1947 0
4207 1 2.18498 54.9766 52.0473 0
2665 1 4.33406 53.7481 51.719 0
4209 1 3.64159 54.9593 51.786 0
2725 1 16.185 63.8832 46.6035 0
1626 1 16.05 66.1539 46.6513 0
703 1 14.8212 61.9635 48.0907 0
1625 1 16.2566 61.8226 47.8185 0
2710 1 6.08485 64.2714 47.9989 0
2706 1 7.50571 64.1841 47.7552 0
2707 1 8.29562 63.083 48.1535 0
198 1 9.73256 63.2724 48.2323 0
1608 1 10.3467 64.5454 47.9935 0
1629 1 12.6278 63.4084 48.0778 0
1627 1 14.0324 63.2239 47.7212 0
1628 1 14.8074 64.1392 47.0128 0
4246 1 5.87326 65.7092 47.8759 0
685 1 8.1449 65.4356 47.6053 0
1607 1 9.48762 65.6655 47.8144 0
1630 1 11.8492 64.6972 48.0027 0
1631 1 12.3842 66.1239 47.9052 0
1633 1 14.6994 65.6147 46.9789 0
4245 1 4.76687 66.3945 48.1337 0
4242 1 4.21367 67.5541 48.4219 0
4240 1 7.158 66.4841 47.7861 0
1610 1 9.9872 66.9661 47.9831 0
1609 1 11.4002 67.2088 48.0588 0
1632 1 13.7248 66.5138 47.5528 0
4243 1 5.09818 68.7212 48.4213 0
4244 1 6.5608 68.922 48.404 0
4241 1 7.60073 67.8664 48.0646 0
3608 1 9.04462 68.0764 48.2043 0
2716 1 11.8818 68.6266 48.2539 0
4228 1 14.18 67.9244 47.7027 0
4229 1 13.2664 68.9374 48.1351 0
4619 1 15.5806 68.3124 47.5151 0
2864 1 14.1679 56.0108 49.8764 0
1623 1 10.5514 57.2667 49.9206 0
1622 1 11.9834 57.2694 49.7984 0
1770 1 16.3249 57.2315 49.6174 0
1769 1 14.8744 57.2137 49.6166 0
4222 1 6.2411 59.7183 49.8326 0
3604 1 7.67553 59.749 49.6282 0
1620 1 9.84395 58.5138 49.6787 0
700 1 8.42227 58.528 49.8529 0
1619 1 10.5286 59.7092 49.2641 0
1621 1 12.6828 58.4909 49.4105 0
1618 1 11.9742 59.715 49.1152 0
200 1 14.1312 58.4741 49.3569 0
2721 1 16.3075 59.5673 48.8311 0
702 1 14.8428 59.6678 48.9829 0
694 1 -0.182796 60.9711 49.953 0
2714 1 1.08095 60.4492 49.9639 0
4225 1 4.00788 60.8831 49.6996 0
4226 1 5.50646 60.8758 49.4903 0
3605 1 8.33745 60.8694 49.0908 0
701 1 9.79101 60.932 49.038 0
699 1 12.6865 60.938 48.7616 0
704 1 14.112 60.8124 48.5459 0
697 1 -1.61913 62.9695 49.6449 0
3981 1 -2.76906 62.1697 49.8389 0
696 1 -0.344662 62.3429 49.6719 0
2712 1 1.98308 62.3411 49.3863 0
2713 1 3.29954 62.1638 49.4268 0
3603 1 6.14268 62.0497 48.9373 0
3606 1 7.56917 61.9968 48.7023 0
199 1 10.5093 62.1533 48.712 0
698 1 11.9546 62.1805 48.5761 0
1603 1 -1.73155 64.3875 49.4702 0
683 1 0.822492 63.061 49.3759 0
684 1 0.741851 64.5515 49.211 0
2708 1 3.1962 64.552 49.0282 0
2709 1 3.97373 63.3408 49.0355 0
2711 1 5.3879 63.2872 48.6255 0
1606 1 -0.567159 65.1892 49.329 0
682 1 2.02187 65.2873 49.1154 0
1604 1 -1.99794 67.2541 49.1736 0
1605 1 -0.72312 66.5909 49.1809 0
687 1 1.80363 66.7837 49.0868 0
686 1 0.434578 67.4344 49.2085 0
1611 1 2.89339 67.6944 48.8457 0
1613 1 -2.09848 68.7041 49.1646 0
688 1 0.304458 68.9235 49.254 0
1612 1 2.86171 69.1395 49.0463 0
4257 1 9.45767 69.4161 48.5579 0
1592 1 -2.30881 56.3469 51.3 0
4210 1 4.32115 56.1778 51.3946 0
3589 1 5.69388 56.1623 51.0666 0
1586 1 8.47547 56.0614 50.4055 0
1585 1 9.86834 56.0459 50.2769 0
2866 1 12.7142 56.0454 50.0247 0
1591 1 -2.37232 57.8183 50.9288 0
4205 1 2.22117 57.303 51.3992 0
4206 1 3.58895 57.3644 51.1591 0
3588 1 6.33221 57.3102 50.5116 0
681 1 7.74444 57.3032 50.2453 0
1590 1 0.0702518 58.2704 50.9233 0
1589 1 -1.21839 58.6906 50.7529 0
1595 1 1.39172 58.3802 50.9135 0
2715 1 1.97815 59.5622 50.3438 0
4224 1 3.39131 59.6615 50.2088 0
4223 1 4.18711 58.523 50.5011 0
4221 1 5.6026 58.5065 50.2295 0
693 1 -2.65106 60.72 50.1113 0
695 1 -1.36595 60.1042 50.2809 0
1593 1 -1.03522 55.6476 51.6508 0
1594 1 0.154617 56.2412 51.8491 0
4208 1 1.46762 56.1734 51.8414 0
4227 1 13.7458 70.2977 48.2844 0
4854 1 16.1147 69.6148 47.7972 0
4853 1 15.1108 70.6021 48.1131 0
4852 1 15.5746 71.9266 48.3924 0
1579 1 2.51341 83.4178 48.4305 0
1614 1 -1.03915 69.6122 49.2508 0
689 1 1.54018 69.6806 49.2593 0
4238 1 4.16337 69.765 48.7835 0
4236 1 7.04477 70.2346 48.801 0
4258 1 8.49589 70.4941 48.818 0
4255 1 10.8547 69.7144 48.4583 0
4022 1 -2.37145 71.8839 49.4229 0
3577 1 -1.15816 71.0338 49.3485 0
3578 1 0.0670966 71.6195 49.3552 0
1617 1 1.37598 71.0762 49.3054 0
1616 1 2.35749 72.1611 49.325 0
4239 1 4.67422 71.1216 48.8961 0
3609 1 3.78388 72.2791 49.0893 0
4237 1 6.12416 71.3417 48.966 0
4256 1 8.9927 71.8384 48.9508 0
4254 1 11.2942 71.0887 48.5526 0
4253 1 10.3967 72.1608 48.8574 0
3607 1 12.7727 71.3382 48.4889 0
3579 1 -2.19908 73.4501 49.4105 0
3576 1 -0.853295 73.9662 49.3633 0
3575 1 0.175472 73.0166 49.4356 0
1615 1 1.54193 73.3261 49.425 0
3610 1 4.27331 73.6009 49.0734 0
4248 1 6.63797 72.7265 48.9332 0
4247 1 5.68535 73.8382 49.022 0
4249 1 8.1269 73.0104 48.917 0
3611 1 10.908 73.4925 48.8947 0
4234 1 12.309 73.7532 48.938 0
4235 1 13.274 72.7095 48.7027 0
4232 1 14.6774 72.9836 48.7102 0
2647 1 -0.463097 75.3623 49.3196 0
674 1 0.949064 75.6753 49.3075 0
691 1 3.38502 74.7617 49.0811 0
675 1 1.99755 74.6188 49.2968 0
4252 1 6.22486 75.2186 48.8456 0
4251 1 7.5861 75.5303 48.7882 0
4250 1 8.59011 74.4058 48.9128 0
3612 1 10.0041 74.6115 48.9268 0
4233 1 12.7451 75.1398 49.0869 0
4230 1 14.2308 75.3654 49.1319 0
4231 1 15.1603 74.3059 48.9483 0
4058 1 -2.89243 75.9981 49.2708 0
4204 1 -1.49301 76.3988 49.2436 0
1575 1 1.46251 76.99 49.0272 0
1578 1 2.91016 77.2153 48.8504 0
692 1 3.87647 76.1219 48.9788 0
690 1 5.27379 76.3362 48.8206 0
673 1 8.12394 76.8242 48.731 0
1574 1 9.54761 77.0516 48.8532 0
2641 1 10.4218 75.9472 49.0158 0
3564 1 11.8454 76.2252 49.1394 0
3562 1 14.7432 76.7137 49.3709 0
2731 1 16.1879 77.0215 49.467 0
4203 1 -1.91405 78.7611 49.02 0
4202 1 -1.0007 77.7126 49.1747 0
1576 1 0.461977 78.0159 49.021 0
2629 1 3.41484 78.5748 48.7134 0
2626 1 4.81324 78.7908 48.6801 0
1572 1 5.74063 77.6999 48.6898 0
1571 1 7.22447 77.9334 48.7024 0
4198 1 11.4376 78.6642 49.1953 0
4200 1 10.0231 78.4166 49.021 0
3563 1 12.3878 77.5689 49.2638 0
3561 1 13.7806 77.8125 49.3865 0
677 1 -1.38507 80.1526 48.8311 0
676 1 0.0867521 80.4653 48.7897 0
1577 1 1.04635 79.3855 48.878 0
2628 1 2.48061 79.6711 48.6605 0
2627 1 5.38686 80.1544 48.6267 0
2632 1 6.76725 80.402 48.7402 0
2634 1 7.67874 79.296 48.7937 0
4201 1 9.14461 79.5371 48.9664 0
4199 1 11.941 79.9853 49.287 0
2732 1 14.2879 79.15 49.5015 0
3559 1 13.3654 80.2756 49.3969 0
2729 1 15.6877 79.4291 49.6559 0
2645 1 -2.36488 81.2141 48.6209 0
678 1 0.610466 81.8137 48.5926 0
1580 1 2.00002 82.0784 48.5205 0
2630 1 2.97383 81.0237 48.5923 0
2631 1 4.43412 81.2398 48.5639 0
2633 1 7.26742 81.7275 48.8011 0
4612 1 8.70417 81.9957 48.9324 0
4614 1 9.65277 80.8951 49.0477 0
4615 1 11.0311 81.0772 49.2858 0
3558 1 13.8904 81.5735 49.5257 0
1641 1 15.298 81.8648 49.7142 0
1640 1 16.2368 80.7312 49.7669 0
2646 1 -1.59653 82.3295 48.4458 0
679 1 -0.351591 82.876 48.4905 0
2636 1 3.94274 83.6531 48.4791 0
2637 1 4.8964 82.5601 48.5361 0
2635 1 6.33339 82.8213 48.6507 0
4611 1 9.19475 83.3009 49.0877 0
4613 1 11.479 82.4771 49.4562 0
4610 1 10.5608 83.5533 49.296 0
3560 1 12.9168 82.7021 49.5594 0
706 1 15.7664 83.2423 49.8553 0
680 1 -2.01782 85.3707 48.1718 0
2022 1 -0.716983 85.3364 48.2032 0
2021 1 0.116012 84.2171 48.3411 0
2020 1 1.58308 84.5223 48.3364 0
3807 1 -0.181179 86.692 48.151 0
3808 1 1.21822 86.9591 48.1785 0
2019 1 2.10718 85.855 48.3531 0
1027 1 3.54864 86.1132 48.4365 0
3009 1 -2.56177 87.5678 47.9479 0
3806 1 -1.09701 87.8481 48.0242 0
3809 1 1.72685 88.2807 48.1307 0
2024 1 3.095 88.5837 48.3109 0
2025 1 4.02096 87.4546 48.4164 0
3010 1 -1.54857 90.2618 48.0056 0
3811 1 -0.617671 89.1584 47.9531 0
3810 1 0.782407 89.373 48.0083 0
2023 1 3.64724 89.8901 48.367 0
1950 1 -1.05897 91.581 48.0126 0
339 1 1.30531 90.7533 48.0685 0
340 1 0.390703 91.8581 48.034 0
363 1 2.73264 90.9777 48.2252 0
3814 1 -1.96405 92.689 47.9311 0
94 1 0.878566 93.2179 48.2403 0
105 1 2.28983 93.4402 48.3129 0
364 1 3.25164 92.3464 48.1985 0
1024 1 4.66399 92.6131 48.4271 0
3812 1 -1.43257 94.0212 48.1944 0
3813 1 -2.34922 95.023 48.3861 0
2639 1 4.4823 84.9909 48.5443 0
2640 1 5.91621 85.2677 48.6225 0
1573 1 8.31021 84.3709 48.8835 0
2638 1 6.84525 84.1734 48.7067 0
2028 1 11.0787 84.9273 49.3073 0
2029 1 12.4475 85.1675 49.5061 0
2027 1 13.3833 84.0586 49.628 0
705 1 14.8079 84.3044 49.7749 0
1030 1 6.37659 86.6065 48.6176 0
1029 1 7.78771 86.8736 48.7586 0
1028 1 8.73243 85.7643 48.8735 0
1032 1 10.1722 85.9971 49.0406 0
1031 1 13.004 86.5016 49.5569 0
2038 1 14.378 86.7816 49.8313 0
2037 1 15.2745 85.6497 49.9478 0
2026 1 5.47684 87.7306 48.5048 0
3835 1 8.30394 88.2322 48.7611 0
3834 1 9.71317 88.4872 48.9922 0
1034 1 10.6244 87.3446 49.1137 0
1033 1 12.0345 87.6036 49.4133 0
2036 1 14.8046 88.1538 49.9664 0
3045 1 5.04907 90.1784 48.5255 0
3046 1 5.95734 89.0589 48.5345 0
3837 1 7.36756 89.3271 48.6663 0
3833 1 10.1479 89.802 49.1327 0
2408 1 11.5575 90.0381 49.3384 0
2403 1 12.4633 88.9727 49.4829 0
2406 1 13.8272 89.2411 49.7465 0
3043 1 5.57358 91.511 48.5513 0
3044 1 6.9361 91.785 48.6814 0
3838 1 7.84518 90.6823 48.8539 0
3836 1 9.24196 90.8859 48.9651 0
2407 1 12.0548 91.377 49.3973 0
2405 1 13.4405 91.6725 49.6971 0
2404 1 14.3315 90.588 49.8192 0
2017 1 7.38575 93.0972 48.7781 0
2016 1 8.82096 93.3757 48.8663 0
2018 1 9.75319 92.2124 48.9418 0
1336 1 11.1187 92.4762 49.2363 0
1969 1 13.9223 93.0372 49.8114 0
95 1 -0.0565548 94.2451 48.448 0
106 1 2.69357 94.7724 48.6922 0
1026 1 5.07122 93.9675 48.6724 0
366 1 4.11582 95.044 48.8222 0
1025 1 6.48151 94.2033 48.9063 0
1340 1 9.30941 94.7066 49.1514 0
1339 1 10.6675 94.9567 49.4505 0
547 1 11.625 93.8464 49.4443 0
1970 1 12.9793 94.1157 49.7644 0
965 1 -2.01895 96.3873 48.8698 0
97 1 -0.624854 96.6562 49.1971 0
17 1 0.362754 95.6233 48.8511 0
16 1 1.75961 95.8537 48.9345 0
365 1 4.58293 96.3531 49.1546 0
551 1 5.93003 96.6232 49.3602 0
550 1 6.91975 95.5661 49.1916 0
1341 1 8.3944 95.7867 49.2123 0
1337 1 11.162 96.2991 49.682 0
989 1 12.5459 96.6092 49.9282 0
1971 1 13.4719 95.4779 49.9185 0
96 1 -0.166752 97.8726 49.7776 0
90 1 1.26914 98.2304 49.7179 0
91 1 2.21004 97.1509 49.3226 0
103 1 3.66042 97.4372 49.4067 0
549 1 6.43921 97.8925 49.5396 0
548 1 7.86186 98.1982 49.5365 0
1342 1 8.81025 97.1374 49.4818 0
1338 1 10.2415 97.3943 49.6564 0
1967 1 12.9684 97.9876 49.9961 0
3051 1 16.2125 88.4228 50.2709 0
1035 1 15.7585 90.8874 50.1823 0
3817 1 16.24 92.2437 50.2455 0
3815 1 15.2931 93.3284 50.0744 0
3820 1 15.7791 94.692 50.195 0
3024 1 14.9059 95.7731 50.0714 0
1968 1 14.4131 98.2031 50.1326 0
3021 1 15.3327 97.1462 50.1855 0
104 1 4.11626 98.7378 49.8141 0
102 1 5.54591 99.0065 49.6429 0
170 1 8.33167 99.5937 49.5363 0
355 1 9.75424 99.8472 49.6854 0
354 1 10.6839 98.7466 49.7695 0
1965 1 12.0867 99.0228 49.9547 0
963 1 3.62106 101.162 49.9231 0
93 1 5.97558 100.385 49.6505 0
92 1 7.36816 100.701 49.5983 0
988 1 10.1616 101.231 49.8033 0
962 1 5.02637 101.5 49.7267 0
3802 1 5.41455 102.86 49.6891 0
4358 1 7.76031 102.098 49.6216 0
4360 1 9.22576 102.356 49.6878 0
3016 1 11.5345 101.506 49.9622 0
3017 1 12.0462 102.854 49.9332 0
3007 1 3.01463 103.571 49.9831 0
3803 1 4.43338 103.943 49.7751 0
4356 1 7.27258 104.529 49.6485 0
4359 1 6.80409 103.185 49.5918 0
4361 1 9.67031 103.747 49.7343 0
1964 1 11.087 103.979 49.795 0
3020 1 13.4628 103.114 49.9623 0
3011 1 13.8606 104.451 49.9501 0
3804 1 4.86967 105.293 49.7306 0
3008 1 3.81787 106.301 49.8633 0
3805 1 6.27887 105.649 49.6896 0
3796 1 9.13533 106.208 49.6559 0
4357 1 8.69422 104.801 49.7092 0
1963 1 11.5282 105.331 49.6849 0
1962 1 12.9503 105.544 49.782 0
3797 1 4.18847 107.721 49.9538 0
4353 1 6.7099 107.05 49.6744 0
4350 1 8.17437 107.357 49.599 0
1333 1 11.0985 107.761 49.5348 0
1961 1 10.6025 106.415 49.6388 0
985 1 13.4401 106.887 49.7392 0
987 1 14.8639 107.188 49.8709 0
4355 1 5.6227 108.054 49.6937 0
4354 1 5.82388 109.417 49.5835 0
4352 1 8.72082 108.732 49.4074 0
1335 1 10.2314 108.868 49.385 0
1332 1 12.5248 107.987 49.5942 0
1331 1 13.063 109.322 49.4139 0
545 1 15.3664 108.541 49.7067 0
3799 1 5.52064 110.684 49.6389 0
4351 1 7.95946 109.827 49.3999 0
1334 1 10.734 110.168 49.1641 0
1330 1 12.1551 110.378 49.1401 0
546 1 14.4783 109.675 49.4968 0
1345 1 15.0202 111.021 49.2498 0
79 1 1.09249 112.093 49.9494 0
78 1 3.77118 112.526 49.927 0
12 1 6.4893 111.709 49.4465 0
26 1 7.75371 111.187 49.3436 0
552 1 9.96059 111.273 48.9632 0
553 1 8.86863 112.051 49.1431 0
554 1 12.5708 111.672 48.9106 0
1329 1 11.6934 112.701 48.8451 0
1343 1 13.9629 111.936 48.9213 0
341 1 -0.748728 98.8632 50.5742 0
337 1 1.72046 99.5139 50.1305 0
338 1 3.13887 99.7927 50.0183 0
1966 1 14.8602 99.5894 50.1758 0
356 1 16.2477 99.793 50.3586 0
971 1 -1.51392 101.267 51.3273 0
970 1 -0.630335 100.23 50.9166 0
967 1 0.81695 100.59 50.5515 0
3015 1 12.504 100.412 50.0187 0
3018 1 13.9073 100.65 50.0781 0
966 1 -0.905106 102.61 51.4133 0
968 1 1.29749 101.911 50.5057 0
969 1 0.391619 102.958 50.8922 0
964 1 2.65184 102.208 50.1247 0
3019 1 14.3329 102.051 50.1594 0
3013 1 15.7484 102.304 50.29 0
343 1 0.721014 104.36 50.6801 0
3005 1 2.02044 104.624 50.1493 0
3014 1 16.1683 103.649 50.2995 0
1947 1 -1.46547 105.083 51.3674 0
1944 1 -2.61187 105.876 51.2082 0
1948 1 -0.218381 105.4 50.8666 0
3006 1 2.38944 106.012 50.0392 0
3012 1 15.2678 104.749 50.1658 0
986 1 15.7608 106.08 50.0705 0
1945 1 -2.53005 107.223 50.7203 0
1946 1 0.0274636 106.739 50.4603 0
1943 1 -1.12372 107.733 50.5446 0
1949 1 1.37871 107.068 50.1477 0
961 1 -0.593765 109.1 50.3163 0
3002 1 1.81145 108.392 50.1525 0
3004 1 0.82488 109.487 50.1757 0
3798 1 3.1907 108.721 50.1425 0
2996 1 -1.26809 110.359 50.3717 0
3003 1 1.21781 110.733 50.0022 0
3801 1 3.5136 110.033 50.3299 0
3800 1 4.18509 111.103 50.0049 0
2995 1 -2.7533 112.415 50.4338 0
2997 1 -1.4447 111.735 50.3116 0
1931 1 -0.23182 112.688 50.1425 0
342 1 -1.77025 103.714 51.6357 0
4177 1 34.8602 -0.871138 48.2006 0
4178 1 33.5969 0.999401 48.1166 0
4176 1 34.9102 0.523063 47.8291 0
1550 1 33.3958 2.37631 48.2944 0
668 1 34.5372 3.28242 48.3076 0
544 1 18.3191 -2.16675 49.8076 0
3539 1 30.6934 -2.18161 49.9811 0
4180 1 33.501 -1.28194 48.601 0
3542 1 32.9486 -2.36824 49.0618 0
1513 1 17.1475 0.115264 49.3494 0
610 1 18.3713 -0.602316 49.7112 0
609 1 19.6174 0.254009 49.8446 0
1454 1 23.595 0.420416 49.9398 0
666 1 29.0266 -0.113969 49.7779 0
3540 1 30.3777 -0.720652 49.5535 0
3541 1 31.3995 0.260672 49.0545 0
4179 1 32.6945 -0.0574505 48.6065 0
1514 1 16.9388 1.55941 49.462 0
611 1 19.4495 1.78847 49.7588 0
1452 1 22.1816 0.817891 49.8611 0
620 1 24.736 1.33108 49.6831 0
664 1 27.2573 1.80155 49.4913 0
665 1 26.1465 0.855748 49.7143 0
663 1 28.6826 1.30964 49.5023 0
1549 1 31.0773 1.7164 48.9845 0
612 1 18.1102 2.39103 49.6908 0
28 1 20.5594 2.73439 49.7036 0
619 1 21.9503 2.27959 49.6976 0
618 1 23.1057 3.18593 49.5709 0
621 1 24.5328 2.76358 49.5045 0
1526 1 25.6121 3.65069 49.374 0
1530 1 27.0044 3.19603 49.3341 0
659 1 29.705 2.214 49.2145 0
661 1 29.3818 3.59624 49.0998 0
1548 1 32.0708 2.74083 48.7044 0
784 1 16.5173 4.42738 49.7356 0
625 1 17.8273 3.83308 49.799 0
626 1 18.9838 4.74493 49.749 0
182 1 20.3299 4.20038 49.6566 0
180 1 22.8334 4.64156 49.5455 0
181 1 21.4386 5.11633 49.6011 0
1525 1 25.3574 5.09013 49.4592 0
1529 1 28.0524 4.1549 49.1904 0
662 1 30.4691 4.58684 49.0096 0
660 1 31.8189 4.13792 48.7718 0
656 1 32.9317 5.07492 48.7556 0
653 1 34.2676 4.61471 48.6774 0
2574 1 17.4349 6.73686 49.6566 0
2576 1 18.7935 6.18016 49.7153 0
624 1 21.283 6.55806 49.609 0
614 1 23.9355 5.61153 49.5118 0
1528 1 26.438 6.07103 49.2791 0
1527 1 27.7765 5.57477 49.1393 0
179 1 28.9004 6.492 49.0659 0
654 1 30.2121 5.99363 49.024 0
657 1 32.6479 6.45334 48.9433 0
3534 1 35.3668 5.4345 48.9565 0
3535 1 35.052 6.81543 49.3728 0
2575 1 17.2238 8.16462 49.7688 0
2577 1 19.8965 7.12814 49.7411 0
623 1 22.3337 7.49752 49.5249 0
615 1 23.7207 7.02532 49.4224 0
617 1 24.7918 8.0064 49.281 0
616 1 26.1269 7.49285 49.1901 0
30 1 27.2787 8.38143 49.1731 0
29 1 28.6155 7.87492 49.1312 0
655 1 31.3075 6.97405 48.9955 0
1541 1 31.0469 8.37637 49.1599 0
1546 1 33.7243 7.35094 49.2556 0
2579 1 18.3309 9.11668 49.8749 0
2578 1 19.6601 8.53644 49.8248 0
1533 1 20.7582 9.47587 49.7464 0
622 1 22.0771 8.93421 49.6014 0
184 1 23.1794 9.85848 49.4949 0
183 1 24.5619 9.39797 49.3772 0
633 1 27.0353 9.85163 49.1485 0