# USER_LATT cell with dimension 1 x 1 x 1 and a = 1
      5125  atoms
         1  atom types

 0.   110.00000000000000  xlo xhi
 0.   110.00000000000000  ylo yhi
 0.   100.00000000000000  zlo zhi

Atoms

1 1    81.83417510000000    41.89356620000000    50.00000000000000
2 1    81.07618710000000    40.71388249999999    50.00000000000000
3 1    78.86421980000000    37.28157040000000    50.00000000000000
4 1    79.61193849999999    38.44922260000000    50.00000000000000
5 1    33.26124570000000     6.26348830000000    50.00000000000000
6 1    13.20855520000000   105.83347319999999    50.00000000000000
7 1    53.67671590000000    91.99819959999999    50.00000000000000
8 1    48.69577410000000    72.41989900000000    50.00000000000000
9 1    49.10277940000000    71.43433380000000    50.00000000000000
10 1    51.72697450000000    31.98596000000000    50.00000000000000
11 1    81.26343540000001    43.02320480000000    50.00000000000000
12 1    80.89072419999999    38.38327410000000    50.00000000000000
13 1    83.55287170000000    38.20701600000000    50.00000000000000
14 1    81.66401670000000    39.55473710000000    50.00000000000000
15 1    83.00006870000000    39.44326399999999    50.00000000000000
16 1    79.70540620000000    40.80356980000000    50.00000000000000
17 1    78.97500620000000    39.61351780000000    50.00000000000000
18 1    33.92169960000000    29.27677350000000    50.00000000000000
19 1    32.72777940000000    28.49432950000000    50.00000000000000
20 1    55.89579400000000    13.98437500000000    50.00000000000000
21 1    20.16266630000000   109.39102939999998    50.00000000000000
22 1    14.39915470000000   106.78485870000000    50.00000000000000
23 1    13.40221020000000   104.58623510000000    50.00000000000000
24 1    70.07911679999999    67.54455570000000    50.00000000000000
25 1    70.69345859999999    60.86101920000000    50.00000000000000
26 1    70.74280550000000    59.20292659999999    50.00000000000000
27 1    57.16518019999999    44.61750800000000    50.00000000000000
28 1    49.57461550000000    66.43177799999998    50.00000000000000
29 1    55.57606890000000    55.24425510000000    50.00000000000000
30 1    54.82683569999999    53.82508470000000    50.00000000000000
31 1    55.40241240000000    52.86038219999999    50.00000000000000
32 1    59.54716880000000    55.17553710000000    50.00000000000000
33 1    56.85994720000000    55.16248699999999    50.00000000000000
34 1    55.01365660000000    56.11244580000000    50.00000000000000
35 1    55.64395909999999    57.63098909999999    50.00000000000000
36 1    62.80658720000000    68.20089720000000    50.00000000000000
37 1    62.96057139999999    66.85588079999999    50.00000000000000
38 1    58.93597420000000    72.63112640000000    50.00000000000000
39 1    57.88346480000000    59.17336660000000    50.00000000000000
40 1    57.03524020000000    57.53910070000000    50.00000000000000
41 1    57.70823289999999    56.55387120000000    50.00000000000000
42 1    58.79773329999999    56.48957060000000    50.00000000000000
43 1    53.60071179999999    94.34540560000001    50.00000000000000
44 1    55.62434389999999    92.91524520000000    50.00000000000000
45 1    54.25936510000000    92.83273319999999    50.00000000000000
46 1    52.83934780000000    94.52639009999999    50.00000000000000
47 1    62.00169750000000    91.53894810000000    50.00000000000000
48 1    60.71313480000000    91.18483730000000    50.00000000000000
49 1    60.69735720000000    82.64113620000001    50.00000000000000
50 1    56.48400500000000    84.02304080000000    50.00000000000000
51 1    55.33134460000000    84.52658079999999    50.00000000000000
52 1    55.11574939999999    85.90797420000000    50.00000000000000
53 1    56.26901629999999    92.21966550000000    50.00000000000000
54 1    58.16448210000000    90.37448120000001    50.00000000000000
55 1    71.99131020000000    82.14014439999998    50.00000000000000
56 1    71.65198520000000    83.93521120000000    50.00000000000000
57 1    70.92681120000000    84.12548070000000    50.00000000000000
58 1    52.87464139999999    74.08386229999999    50.00000000000000
59 1    51.37110520000000    73.17836000000000    50.00000000000000
60 1    60.15945820000000    72.06616970000000    50.00000000000000
61 1    64.24668890000000    79.25673680000000    50.00000000000000
62 1   105.44526670000000    97.39334110000000    50.00000000000000
63 1   104.94857039999998    98.55431369999999    50.00000000000000
64 1   103.67318730000000    98.78623959999999    50.00000000000000
65 1   106.65456389999999    97.13223270000000    50.00000000000000
66 1   107.05371860000000    95.83622739999998    50.00000000000000
67 1    52.56295780000000    39.96228419999999    50.00000000000000
68 1    25.48775290000000    52.73130420000000    50.00000000000000
69 1    26.50769810000000    57.12704470000000    50.00000000000000
70 1    27.57464220000000    54.60081480000000    50.00000000000000
71 1    28.87070080000000    77.03021240000000    50.00000000000000
72 1     3.69078380000000     6.23175860000000    50.00000000000000
73 1     5.18828870000000     6.20007560000000    50.00000000000000
74 1     5.77590850000000     5.12713430000000    50.00000000000000
75 1     3.14415170000000     7.34897760000000    50.00000000000000
76 1     2.79143460000000    24.04761120000000    50.00000000000000
77 1     3.69701840000000    22.74718480000000    50.00000000000000
78 1     4.91700320000000    22.83951380000000    50.00000000000000
79 1    22.26827810000000     9.94813360000000    50.00000000000000
80 1    25.58040240000000     6.39249370000000    50.00000000000000
81 1    24.33565330000000     6.34234570000000    50.00000000000000
82 1    23.58836370000000     7.59137440000000    50.00000000000000
83 1    90.64839170000000    90.42426300000000    50.00000000000000
84 1    95.44152070000000    65.40549470000001    50.00000000000000
85 1    94.66371160000000    71.70623019999998    50.00000000000000
86 1    93.24494169999998    72.00727080000000    50.00000000000000
87 1    97.76709750000001    29.35569190000000    50.00000000000000
88 1    91.29354100000000    40.24846269999999    50.00000000000000
89 1    94.53897100000000    47.93866360000000    50.00000000000000
90 1    95.36329650000000    48.93531039999999    50.00000000000000
91 1    50.36072919999999    29.23311620000000    50.00000000000000
92 1    50.48282240000000    29.96420300000000    50.00000000000000
93 1    51.74896620000000    30.66061400000000    50.00000000000000
94 1    55.18578719999999    32.26953510000000    50.00000000000000
95 1    54.34049990000000    31.71232800000000    50.00000000000000
96 1    52.93334200000000    32.72443770000000    50.00000000000000
97 1    52.99770740000000    33.76015089999999    50.00000000000000
98 1    73.27948000000001    71.19572450000000    50.00000000000000
99 1    74.30344389999999    71.90296180000000    50.00000000000000
100 1    79.60552219999998    45.10130690000000    50.00000000000000
101 1    78.85683440000000    46.50009540000000    50.00000000000000
102 1    80.58136749999998    47.54329680000000    50.00000000000000
103 1    79.49502570000000    47.48032760000000    50.00000000000000
104 1    81.32451630000000    48.54505540000000    50.00000000000000
105 1    82.87543499999998    50.67499160000000    50.00000000000000
106 1    82.77667240000000    37.11419299999999    50.00000000000000
107 1    81.52947999999999    37.20043560000000    50.00000000000000
108 1    83.72999580000000    29.16971210000000    50.00000000000000
109 1    85.33828740000000    29.32961470000000    50.00000000000000
110 1    85.90082560000000    30.37522510000000    50.00000000000000
111 1    79.11730190000000    41.91955580000000    50.00000000000000
112 1    79.21622470000000    44.26158909999999    50.00000000000000
113 1    79.80930330000000    43.11473849999999    50.00000000000000
114 1    77.62762449999998    39.66349409999999    50.00000000000000
115 1    37.30553820000000    23.82072260000000    50.00000000000000
116 1    25.63374140000000    23.35829930000000    50.00000000000000
117 1    26.89288720000000    23.12832260000000    50.00000000000000
118 1    36.53295140000000    26.42534070000000    50.00000000000000
119 1    37.26605610000000    26.65936470000000    50.00000000000000
120 1    35.11218639999999    27.40098000000000    50.00000000000000
121 1    35.18111040000000    28.46076590000000    50.00000000000000
122 1    34.02571490000000    26.65051080000000    50.00000000000000
123 1    32.13443380000000    24.84916700000000    50.00000000000000
124 1    31.82051660000000    26.38931850000000    50.00000000000000
125 1    32.85086440000000    27.14305880000000    50.00000000000000
126 1    30.74916650000000    26.71633720000000    50.00000000000000
127 1    27.35566900000000    30.00348850000000    50.00000000000000
128 1    28.53314400000000    32.39558790000000    50.00000000000000
129 1    29.44816780000000    28.59603120000000    50.00000000000000
130 1    30.36142540000000    28.30717470000000    50.00000000000000
131 1    28.91072080000000    30.04853630000000    50.00000000000000
132 1    29.32693480000000    30.69887930000000    50.00000000000000
133 1    31.52408030000000    29.10498430000000    50.00000000000000
134 1    18.67835620000000    33.35856250000000    50.00000000000000
135 1    17.90507320000000    26.22312930000000    50.00000000000000
136 1    19.05924990000000    26.31072810000000    50.00000000000000
137 1    32.85347760000000     7.47488500000000    50.00000000000000
138 1    32.33365250000000     5.15358310000000    50.00000000000000
139 1    55.02450180000000     9.32628160000000    50.00000000000000
140 1    53.60259250000000     9.63543420000000    50.00000000000000
141 1    52.66613390000000     8.57314020000000    50.00000000000000
142 1    60.77734000000000     2.94324920000000    50.00000000000000
143 1    57.81064610000000     9.12454220000000    50.00000000000000
144 1    61.12724690000000     5.29306410000000    50.00000000000000
145 1    61.60947419999999     4.05453440000000    50.00000000000000
146 1    64.93042000000000    19.99618720000000    50.00000000000000
147 1    63.62428669999999    20.17229840000000    50.00000000000000
148 1    56.79739379999999    15.09661100000000    50.00000000000000
149 1    58.10686110000000    14.86652100000000    50.00000000000000
150 1    43.85271840000000    13.39541060000000    50.00000000000000
151 1    43.53055190000000    14.66979510000000    50.00000000000000
152 1    30.64513590000000     3.02860620000000    50.00000000000000
153 1    34.11702350000000     3.66478590000000    50.00000000000000
154 1    32.76555640000000     3.93723780000000    50.00000000000000
155 1    32.39020539999999     1.54136310000000    50.00000000000000
156 1    31.84634020000000     2.83456760000000    50.00000000000000
157 1     7.62538440000000    85.19508360000000    50.00000000000000
158 1     6.43036610000000    84.16860959999998    50.00000000000000
159 1    10.70136070000000    80.92682660000000    50.00000000000000
160 1    15.52594570000000    57.85436640000000    50.00000000000000
161 1     7.08327390000000    89.10021209999998    50.00000000000000
162 1     7.38088180000000    86.40842440000000    50.00000000000000
163 1     3.10992500000000    91.92561339999999    50.00000000000000
164 1     3.32716970000000    90.55325320000000    50.00000000000000
165 1     4.59387730000000    90.11218260000000    50.00000000000000
166 1     6.90526020000000   107.02602390000000    50.00000000000000
167 1     1.81087030000000    92.41213990000000    50.00000000000000
168 1     0.83611170000000    91.58444980000000    50.00000000000000
169 1     0.61544980000000    94.20836640000000    50.00000000000000
170 1     1.60466720000000    93.74203489999999    50.00000000000000
171 1     0.37494280000000    95.69809730000000    50.00000000000000
172 1    21.22570989999999   108.98731239999999    50.00000000000000
173 1    15.49277210000000   109.04463960000000    50.00000000000000
174 1    14.18525600000000   107.94809719999999    50.00000000000000
175 1    12.89588260000000   108.57155610000000    50.00000000000000
176 1    28.25073050000000   105.27796170000001    50.00000000000000
177 1    60.76491930000000   108.64405060000000    50.00000000000000
178 1    60.98930360000000   109.57289129999999    50.00000000000000
179 1    84.57011420000001    96.03434750000000    50.00000000000000
180 1    85.17825319999999    94.77972410000000    50.00000000000000
181 1    85.01507570000000   109.95224760000001    50.00000000000000
182 1    81.16834259999999    95.50690460000000    50.00000000000000
183 1    82.52094269999999    94.90465559999998    50.00000000000000
184 1    83.56467440000000    96.14620210000000    50.00000000000000
185 1    80.34616849999999    95.12473299999999    50.00000000000000
186 1    89.82200630000000    89.38464360000000    50.00000000000000
187 1    63.01869580000000    97.02682500000000    50.00000000000000
188 1    71.37360379999998    66.92774199999999    50.00000000000000
189 1    53.46963120000000    53.93337640000000    50.00000000000000
190 1    56.56773380000000    45.73855209999999    50.00000000000000
191 1    69.78034210000000    58.74843980000000    50.00000000000000
192 1    64.55345920000001    36.27732850000000    50.00000000000000
193 1    63.24254989999999    36.26488500000000    50.00000000000000
194 1    54.13078690000000    40.34995650000000    50.00000000000000
195 1    42.17790220000000    65.98028560000000    50.00000000000000
196 1    48.27916720000000    66.59110259999999    50.00000000000000
197 1    50.08186340000000    65.16012569999999    50.00000000000000
198 1    51.88652039999999    65.09729000000000    50.00000000000000
199 1    46.47911839999999    67.98744960000001    50.00000000000000
200 1    47.73004149999999    67.79846960000000    50.00000000000000
201 1    48.16124730000000    70.10807040000000    50.00000000000000
202 1    48.66658790000000    68.99618540000000    50.00000000000000
203 1    57.47210310000000    51.68862540000000    50.00000000000000
204 1    56.81699370000000    52.82922370000000    50.00000000000000
205 1    58.81667329999999    54.04066090000000    50.00000000000000
206 1    57.53216170000000    54.06680679999999    50.00000000000000
207 1    62.90540699999999    58.34434889999999    50.00000000000000
208 1    65.09126279999998    57.10094830000000    50.00000000000000
209 1    63.40419009999999    56.99624640000000    50.00000000000000
210 1    60.83985139999999    55.17984390000000    50.00000000000000
211 1    61.47504049999999    56.15387730000000    50.00000000000000
212 1    62.93365099999999    56.20005040000000    50.00000000000000
213 1    46.66196440000000    48.76261520000000    50.00000000000000
214 1    46.76330190000000    50.05349350000000    50.00000000000000
215 1    57.23890309999999    59.94239440000000    50.00000000000000
216 1    47.44128040000000    65.45595550000000    50.00000000000000
217 1    53.46523669999999    60.29948810000000    50.00000000000000
218 1    55.19198990000000    58.28131100000000    50.00000000000000
219 1    55.59826279999999    59.79809949999999    50.00000000000000
220 1    55.08228300000000    60.42046740000000    50.00000000000000
221 1    68.97895819999998    66.72127540000000    50.00000000000000
222 1    69.45220189999999    61.43492510000000    50.00000000000000
223 1    63.08813099999999    64.12651060000000    50.00000000000000
224 1    54.66636660000000    65.48147590000001    50.00000000000000
225 1    54.63720320000000    68.25857550000001    50.00000000000000
226 1    58.80988700000000    73.98540500000000    50.00000000000000
227 1    57.83272940000000    71.85130320000000    50.00000000000000
228 1    60.78901670000000    57.58546069999999    50.00000000000000
229 1    59.70655829999999    57.64785010000000    50.00000000000000
230 1    61.63077169999999    58.57061389999999    50.00000000000000
231 1    58.90194699999999    59.10600660000000    50.00000000000000
232 1    42.81061940000000    95.31458280000000    50.00000000000000
233 1    54.31101230000000    90.59806060000000    50.00000000000000
234 1    56.51916889999999    89.85963439999999    50.00000000000000
235 1    55.82885360000000    90.68154149999999    50.00000000000000
236 1    53.72443770000000    89.66677860000000    50.00000000000000
237 1    54.10638429999999    88.52206419999999    50.00000000000000
238 1    46.75035859999999    78.51346589999999    50.00000000000000
239 1    65.74391940000000    92.83084869999999    50.00000000000000
240 1    64.54563909999999    92.44640350000000    50.00000000000000
241 1    66.04183959999999    94.27838899999999    50.00000000000000
242 1    64.93177040000000    95.12339780000001    50.00000000000000
243 1    59.81109620000000    92.02744290000000    50.00000000000000
244 1    60.11231230000000    93.45081329999999    50.00000000000000
245 1    57.64269640000000    92.40357210000001    50.00000000000000
246 1    58.39712909999999    91.66467290000000    50.00000000000000
247 1    58.02152250000000    93.98349759999999    50.00000000000000
248 1    59.02668380000000    94.31021120000000    50.00000000000000
249 1    58.70623400000000    88.12660980000000    50.00000000000000
250 1    59.06239699999999    89.45479589999998    50.00000000000000
251 1    59.71257780000000    87.19482420000000    50.00000000000000
252 1    61.02462010000000    87.59459689999998    50.00000000000000
253 1    61.32154079999999    88.92206579999998    50.00000000000000
254 1    60.39449689999999    89.80988309999998    50.00000000000000
255 1    60.57909399999999    81.14355470000000    50.00000000000000
256 1    61.83140179999999    80.44684599999999    50.00000000000000
257 1    62.25491720000000    83.08377840000000    50.00000000000000
258 1    57.12951279999999    86.48186500000000    50.00000000000000
259 1    55.55145650000000    86.41772459999999    50.00000000000000
260 1    57.63292319999999    87.81890869999999    50.00000000000000
261 1    56.38559720000000    88.94093320000000    50.00000000000000
262 1    55.17385480000000    88.17430120000000    50.00000000000000
263 1    66.23909000000000    81.18566900000000    50.00000000000000
264 1    69.08522800000000    77.11246489999999    50.00000000000000
265 1    70.12491609999999    77.85639199999999    50.00000000000000
266 1    71.41332250000001    77.30857850000000    50.00000000000000
267 1    65.42845160000000    78.69253540000000    50.00000000000000
268 1    67.88561260000000    77.59854890000000    50.00000000000000
269 1    67.68163300000001    79.08383180000000    50.00000000000000
270 1    66.56856540000000    79.48030090000000    50.00000000000000
271 1    49.08061980000000    73.25558470000000    50.00000000000000
272 1    50.65828710000000    73.65847019999998    50.00000000000000
273 1    71.04431150000001    69.63504030000000    50.00000000000000
274 1    69.96044160000000    68.87316900000000    50.00000000000000
275 1    69.24050900000000    75.68958280000000    50.00000000000000
276 1    68.16068270000000    74.90970619999999    50.00000000000000
277 1    75.20037840000001    74.05634310000001    50.00000000000000
278 1    74.20080569999999    73.35479740000000    50.00000000000000
279 1    62.61566930000000    70.91696180000000    50.00000000000000
280 1   101.87486280000000   106.92566679999999    50.00000000000000
281 1    96.85890960000000    99.24195860000000    50.00000000000000
282 1   102.76727300000000    97.54803469999999    50.00000000000000
283 1   105.14309690000000   103.40732580000000    50.00000000000000
284 1   103.17312619999998    99.86148080000000    50.00000000000000
285 1   103.92285159999999   101.04528809999998    50.00000000000000
286 1    97.54592139999998   100.25341800000000    50.00000000000000
287 1    97.06233220000000   101.46685789999998    50.00000000000000
288 1    99.03784180000000   100.12795259999999    50.00000000000000
289 1    99.73807530000001   101.24287420000000    50.00000000000000
290 1   101.72672269999998   100.02635189999999    50.00000000000000
291 1   101.22579959999999   101.09861759999998    50.00000000000000
292 1    23.81126020000000    56.51323700000000    50.00000000000000
293 1    22.40865519999999    56.29685210000000    50.00000000000000
294 1    21.52162939999999    57.36211780000000    50.00000000000000
295 1    22.08229260000000    58.63355260000000    50.00000000000000
296 1    24.42432790000000    55.80270010000000    50.00000000000000
297 1    25.85493480000000    55.81254960000000    50.00000000000000
298 1    26.47426610000000    54.79793550000000    50.00000000000000
299 1    25.32871250000000    53.28434750000000    50.00000000000000
300 1    23.93747720000000    54.09197620000000    50.00000000000000
301 1    23.10577580000000    53.82604220000000    50.00000000000000
302 1    21.89507880000000    54.98623660000000    50.00000000000000
303 1    24.68463140000000    51.49596410000000    50.00000000000000
304 1    25.35375020000000    50.24425890000000    50.00000000000000
305 1    51.61462400000000    40.88082900000000    50.00000000000000
306 1    48.90404140000000    40.83433150000000    50.00000000000000
307 1    50.03326420000000    39.94832620000000    50.00000000000000
308 1    48.56714250000000    38.14582829999999    50.00000000000000
309 1    50.02060699999999    38.85134520000000    50.00000000000000
310 1    28.06487660000000    53.57785799999999    50.00000000000000
311 1    27.13859940000000    52.22331620000000    50.00000000000000
312 1    36.34510040000000    52.66709140000000    50.00000000000000
313 1    36.90750120000000    42.53132630000000    50.00000000000000
314 1    39.25895689999999    42.43698120000000    50.00000000000000
315 1    38.16612630000000    43.16905210000000    50.00000000000000
316 1    46.18832020000000    38.21689990000000    50.00000000000000
317 1    47.51956939999999    38.91488280000000    50.00000000000000
318 1    47.56195450000000    40.08987050000000    50.00000000000000
319 1    15.57414720000000   106.25479129999998    50.00000000000000
320 1    36.63667300000000    98.96465300000000    50.00000000000000
321 1    34.78181839999999    96.97001659999999    50.00000000000000
322 1    13.66808420000000   101.86703500000000    50.00000000000000
323 1     8.72166250000000    93.50182350000000    50.00000000000000
324 1    10.83371450000000    95.24303440000000    50.00000000000000
325 1     8.29509740000000    88.63545990000000    50.00000000000000
326 1     9.75397020000000    86.81941229999998    50.00000000000000
327 1     8.51815700000000    87.32203680000001    50.00000000000000
328 1    29.56617170000000    62.88754660000000    50.00000000000000
329 1    30.84341060000000    62.72012710000000    50.00000000000000
330 1    31.42250060000000    67.46733100000000    50.00000000000000
331 1    30.62130930000000    72.36988070000000    50.00000000000000
332 1    32.30147170000000    68.55461120000000    50.00000000000000
333 1    31.72096830000000    69.86109159999999    50.00000000000000
334 1    37.35329440000000    61.79874800000000    50.00000000000000
335 1    27.89168180000000    57.08282470000000    50.00000000000000
336 1    29.80420120000000    55.65379339999999    50.00000000000000
337 1    28.49274830000000    55.82234190000000    50.00000000000000
338 1    25.49877550000000    61.34352879999999    50.00000000000000
339 1    24.83308990000000    62.54501730000000    50.00000000000000
340 1    31.14324190000000    74.62256619999999    50.00000000000000
341 1    30.25381280000000    73.42727660000000    50.00000000000000
342 1    29.58888440000000    76.00484470000001    50.00000000000000
343 1    30.52604680000000    75.87931820000000    50.00000000000000
344 1     9.93601040000000     7.44594000000000    50.00000000000000
345 1     9.31783680000000     8.49285610000000    50.00000000000000
346 1    23.53949550000000    19.33018879999999    50.00000000000000
347 1    21.19927980000000    20.33717350000000    50.00000000000000
348 1    21.94366660000000    19.14758300000000    50.00000000000000
349 1    21.59574509999999    11.03249550000000    50.00000000000000
350 1     9.93807040000000     9.67579270000000    50.00000000000000
351 1     5.91393760000000    11.95432660000000    50.00000000000000
352 1     7.90725660000000    10.78226190000000    50.00000000000000
353 1     9.28042790000000    10.80970580000000    50.00000000000000
354 1     9.89105220000000    11.92737300000000    50.00000000000000
355 1     7.21222930000000    11.98427780000000    50.00000000000000
356 1     5.82320450000000     7.37779860000000    50.00000000000000
357 1     7.26100780000000     9.64758300000000    50.00000000000000
358 1     7.90968760000000     8.49138550000000    50.00000000000000
359 1     7.26750520000000     7.35856200000000    50.00000000000000
360 1     1.63863360000000    23.84011080000000    50.00000000000000
361 1     5.56750490000000    23.94818120000000    50.00000000000000
362 1     3.81586740000000    20.35635950000000    50.00000000000000
363 1     3.02497050000000    21.54830940000000    50.00000000000000
364 1     0.01862080000000    15.51122100000000    50.00000000000000
365 1     1.36416130000000    13.22590540000000    50.00000000000000
366 1     0.13947470000000    13.19069290000000    50.00000000000000
367 1     1.21917370000000    17.88898860000000    50.00000000000000
368 1     3.13070940000000    19.15288160000000    50.00000000000000
369 1     1.87024080000000    19.11071590000000    50.00000000000000
370 1    19.52861410000000     5.09205770000000    50.00000000000000
371 1    20.15195270000000     4.01536560000000    50.00000000000000
372 1    20.22770880000000     6.33859680000000    50.00000000000000
373 1    21.59476090000000     6.32092810000000    50.00000000000000
374 1    22.27329830000000     7.58302790000000    50.00000000000000
375 1    21.58872610000000     8.68245790000000    50.00000000000000
376 1    88.77623749999998    91.85585779999998    50.00000000000000
377 1    90.08862310000001    91.74749759999999    50.00000000000000
378 1    85.66236120000001    79.38856509999999    50.00000000000000
379 1    86.59131619999998    80.49325559999998    50.00000000000000
380 1    83.88894660000000    80.92580420000000    50.00000000000000
381 1    84.28565220000000    79.73258210000000    50.00000000000000
382 1    91.93785099999999    90.27799229999999    50.00000000000000
383 1    92.77192690000000    91.36614230000001    50.00000000000000
384 1    96.19816590000001    86.02311709999998    50.00000000000000
385 1    95.59017179999998    87.36218260000000    50.00000000000000
386 1    74.98091140000000    85.81680299999998    50.00000000000000
387 1    72.57711029999999    84.49983980000000    50.00000000000000
388 1    81.30096439999998    85.25069429999999    50.00000000000000
389 1    79.50981909999999    84.63944250000000    50.00000000000000
390 1    80.54330450000000    84.52557380000000    50.00000000000000
391 1    83.13339230000000    83.55474860000000    50.00000000000000
392 1    82.82932279999999    84.84260560000000    50.00000000000000
393 1    83.77548979999999    89.33413699999998    50.00000000000000
394 1    83.70454410000001    85.77716070000000    50.00000000000000
395 1    85.01950069999999    85.49469759999998    50.00000000000000
396 1    83.29347229999999    87.11205289999999    50.00000000000000
397 1    84.15691380000000    88.03103640000000    50.00000000000000
398 1    85.91398620000000    86.50788120000000    50.00000000000000
399 1    85.49262240000000    87.76766969999998    50.00000000000000
400 1    88.00027470000001    90.86553200000000    50.00000000000000
401 1    86.34952549999998    88.76466370000000    50.00000000000000
402 1    88.50133520000000    89.57406620000000    50.00000000000000
403 1    87.66103370000000    88.55028539999999    50.00000000000000
404 1    76.29752350000000    86.34028630000000    50.00000000000000
405 1    77.17962649999998    85.60062410000000    50.00000000000000
406 1    78.71162420000000    86.10218050000000    50.00000000000000
407 1    79.03630829999999    86.92311860000000    50.00000000000000
408 1    93.56600190000000    63.41249470000000    50.00000000000000
409 1    97.67572019999999    66.16812899999998    50.00000000000000
410 1    96.37579349999999    66.44391629999998    50.00000000000000
411 1    95.31970979999998    84.93074799999999    50.00000000000000
412 1    94.63877110000000    78.88790140000000    50.00000000000000
413 1    88.38479619999998    71.71231840000000    50.00000000000000
414 1    92.87208560000001    73.30043030000000    50.00000000000000
415 1    65.45397950000000    18.84927940000000    50.00000000000000
416 1    66.77221679999998    18.65953830000000    50.00000000000000
417 1    64.59784700000000    17.67654610000000    50.00000000000000
418 1    83.41288760000000    28.17923160000000    50.00000000000000
419 1    84.44275669999999    26.85262500000000    50.00000000000000
420 1    97.67661289999999    15.30759430000000    50.00000000000000
421 1    77.60645300000000    37.28976820000000    50.00000000000000
422 1    75.58685310000000    38.51718520000000    50.00000000000000
423 1    76.92562100000001    38.50372700000000    50.00000000000000
424 1    74.91705320000000    37.37578580000000    50.00000000000000
425 1    70.77996070000000    35.07690430000000    50.00000000000000
426 1    73.46698760000000    35.11882780000000    50.00000000000000
427 1    98.25831610000000    28.12235260000000    50.00000000000000
428 1    99.48565680000000    25.71260840000000    50.00000000000000
429 1   107.81810000000000    18.83628080000000    50.00000000000000
430 1   107.21665960000000    17.62265590000000    50.00000000000000
431 1    99.97178659999999    24.40687560000000    50.00000000000000
432 1   101.44099429999999    24.27536970000000    50.00000000000000
433 1    91.76581580000000    38.85412220000000    50.00000000000000