ITEM: TIMESTEP
0
ITEM: NUMBER OF ATOMS
5125
ITEM: BOX BOUNDS pp pp pp
-3.3743110900245097e+00 1.1337431109002344e+02
-3.2076524559206177e+00 1.1320765245592050e+02
0.0000000000000000e+00 1.0000000000000000e+02
ITEM: ATOMS id type x y z f_5
2118 1 8.42622 -1.64198 48.1101 0
2138 1 7.1247 -0.977149 48.2619 0
2120 1 9.44787 -0.704623 48.0812 0
2135 1 7.26866 0.478328 48.4312 0
2122 1 8.73558 0.552408 48.2464 0
2129 1 -1.49824 -2.26861 49.4547 0
2130 1 -0.0175507 -2.41663 49.5962 0
1092 1 2.93867 -2.08925 49.9452 0
2137 1 6.0118 -1.71563 48.699 0
1680 1 6.21241 -3.0908 48.8246 0
3145 1 8.70198 -2.95105 48.5384 0
3185 1 11.1194 -2.3611 48.8979 0
3986 1 12.5349 -2.67266 49.281 0
3989 1 15.455 -2.74906 49.6779 0
3186 1 17.7144 -2.61027 49.752 0
2131 1 -2.28806 -1.10001 49.7969 0
2126 1 0.744105 -1.10733 49.7428 0
2125 1 2.23438 -0.981815 49.7442 0
2132 1 4.85853 -0.983239 48.8946 0
2124 1 10.7488 -1.01763 48.6383 0
2202 1 12.8176 -0.0691453 49.5371 0
3987 1 13.4171 -1.46582 49.4925 0
3988 1 14.9277 -1.50354 49.5957 0
2205 1 15.743 -0.249408 49.6837 0
1150 1 17.2747 -0.202102 49.6113 0
2207 1 18.0793 -1.34822 49.5585 0
2206 1 19.5388 -1.24729 49.4359 0
3151 1 -0.0730587 0.075233 49.8258 0
2128 1 2.81966 0.263188 49.5094 0
2127 1 2.11157 1.43716 49.8522 0
2133 1 4.23913 0.177325 49.2017 0
2134 1 5.01816 1.44189 49.3059 0
2136 1 6.47533 1.50861 49.0245 0
2121 1 9.45189 1.5451 48.9163 0
2119 1 10.8401 1.3937 49.2257 0
2123 1 11.4515 0.103727 49.1429 0
2203 1 13.5732 1.15584 49.7564 0
2204 1 15.0634 1.01443 49.7831 0
371 1 17.9782 1.05759 49.6287 0
1145 1 19.4108 1.13986 49.5603 0
1098 1 4.29951 2.59967 49.8507 0
1096 1 7.20233 2.70186 49.5115 0
1093 1 8.68772 2.63795 49.4513 0
2112 1 11.5703 2.52272 49.6374 0
2113 1 12.9915 2.43338 49.7566 0
1149 1 15.8401 2.28559 49.8927 0
370 1 17.2934 2.31121 49.8751 0
2116 1 9.3837 3.75596 49.982 0
2117 1 10.8449 3.7314 49.9842 0
372 1 18.0372 3.55427 49.9832 0
373 1 19.4639 3.58314 49.8709 0
375 1 19.466 6.13628 49.9158 0
349 1 19.4438 8.63987 49.9227 0
2165 1 19.4533 11.1296 49.8194 0
3147 1 -2.30369 1.37668 50.2396 0
3149 1 -1.52008 0.163794 50.013 0
3150 1 0.606893 1.3529 50.0492 0
3146 1 -1.56044 2.62501 50.4438 0
3148 1 -0.130937 2.58874 50.3904 0
74 1 2.83064 2.6208 50.0188 0
1095 1 -2.33923 3.86968 50.8784 0
1094 1 -1.50253 4.8345 51.3955 0
72 1 0.704043 3.74502 50.7377 0
73 1 2.14465 3.77693 50.5555 0
1099 1 5.08085 3.78032 50.2453 0
1097 1 6.52875 3.80457 50.082 0
2114 1 13.741 3.60852 50.0909 0
3138 1 13.0488 4.81515 50.405 0
1148 1 15.1835 3.56965 50.0726 0
1152 1 15.8933 4.82677 50.1802 0
1151 1 17.2918 4.82734 50.108 0
75 1 0.0240153 4.9019 51.2312 0
1131 1 0.804578 6.11911 51.4549 0
1129 1 2.24221 6.11713 51.3548 0
356 1 2.92123 4.94795 50.8988 0
359 1 4.36465 4.93477 50.6914 0
358 1 5.14945 6.13694 50.9025 0
344 1 7.27977 4.96 50.4463 0
345 1 6.57824 6.12196 50.7927 0
2115 1 8.70761 4.91215 50.4232 0
3142 1 9.46996 6.14427 50.6322 0
3140 1 11.5787 4.89333 50.3876 0
3144 1 10.8634 6.10217 50.5846 0
3137 1 13.7774 6.06225 50.4631 0
1153 1 15.2538 6.06844 50.3212 0
1154 1 18.023 6.08883 50.114 0
1130 1 3.02435 7.34329 51.4876 0
357 1 4.43123 7.35282 51.1969 0
350 1 7.29569 7.35482 50.9264 0
3141 1 8.75381 7.40239 50.8502 0
3143 1 11.6136 7.36132 50.6762 0
3139 1 13.0614 7.3528 50.5966 0
2210 1 15.9161 7.32909 50.3064 0
2212 1 17.3236 7.31552 50.0994 0
352 1 5.1539 8.63466 51.2791 0
353 1 6.58699 8.61651 51.1423 0
3963 1 9.43597 8.63639 50.9572 0
3968 1 10.8733 8.60835 50.8542 0
1127 1 13.7442 8.58187 50.66 0
2209 1 15.1982 8.55827 50.4338 0
2213 1 18.0631 8.59291 50.0762 0
355 1 4.46164 9.83048 51.5307 0
354 1 7.3012 9.87963 51.176 0
3173 1 6.58753 11.1065 51.3676 0
3964 1 8.71374 9.86073 51.0244 0
3965 1 9.4473 11.082 51.0091 0
3966 1 10.8725 11.066 50.8543 0
3967 1 11.6153 9.83553 50.8594 0
2153 1 13.0562 9.83473 50.7725 0
2169 1 13.7683 11.118 50.6659 0
2168 1 15.157 11.1231 50.6336 0
2211 1 15.8385 9.8404 50.4446 0
2214 1 17.295 9.85679 50.2364 0
2164 1 18.0286 11.0973 50.0076 0
2178 1 -1.68399 6.057 51.9945 0
2179 1 -1.17436 7.27393 52.3005 0
2177 1 0.225412 7.33122 51.9887 0
2180 1 -3.25454 8.38338 52.8444 0
2181 1 -1.86679 8.41124 52.7037 0
2176 1 -1.1321 9.6461 52.7827 0
2174 1 0.959468 8.55185 52.1516 0
2175 1 0.250552 9.71606 52.5302 0
1128 1 2.37966 8.56676 51.884 0
366 1 -3.19381 10.9031 53.0223 0
365 1 -1.77212 10.9587 52.9388 0
3179 1 0.993381 10.9599 52.552 0
3180 1 2.4021 11.0199 52.2786 0
351 1 3.06735 9.842 51.955 0
3170 1 5.16916 11.1204 51.5703 0
2162 1 17.9756 13.6256 49.7903 0
2166 1 19.3762 13.5493 49.5846 0
2158 1 15.0351 16.0224 49.8325 0
2155 1 15.7972 14.8465 49.9814 0
2157 1 17.8589 16.0985 49.5143 0
2156 1 17.1699 14.8292 49.7353 0
1121 1 19.2845 16.0635 49.2815 0
2160 1 15.6473 17.2617 49.5686 0
2159 1 17.0736 17.3456 49.3576 0
348 1 19.8962 17.3306 48.9823 0
2546 1 13.5222 18.4734 49.9721 0
2545 1 14.8601 18.507 49.6595 0
1114 1 17.7168 18.5386 49.123 0
347 1 19.0987 18.5164 48.8924 0
2544 1 13.4315 20.9445 49.8444 0
2542 1 14.8018 20.9471 49.4549 0
2543 1 15.5415 19.7109 49.4074 0
1418 1 16.9307 19.7475 49.0082 0
1417 1 17.5877 21.0267 48.831 0
2143 1 19.7087 19.7954 48.6586 0
2142 1 18.9723 21.0178 48.674 0
1415 1 15.4627 22.236 49.199 0
1416 1 16.8962 22.2538 48.8537 0
2141 1 19.6685 22.265 48.5202 0
525 1 14.8029 23.4737 49.5247 0
527 1 17.5662 23.526 48.7777 0
526 1 19.0034 23.5108 48.6605 0
135 1 15.4711 24.7152 49.4361 0
136 1 16.8513 24.7692 49.0919 0
1423 1 19.7486 24.8194 48.6831 0
3174 1 7.31967 12.3276 51.4488 0
2151 1 8.74637 12.3243 51.1539 0
2154 1 11.6061 12.3093 50.7162 0
2173 1 13.0357 12.3563 50.5923 0
2171 1 15.8823 12.3756 50.3721 0
2163 1 17.2743 12.3694 50.0251 0
2152 1 9.42517 13.532 51.0346 0
2150 1 10.8203 13.5483 50.7727 0
2172 1 13.667 13.6046 50.363 0
2170 1 15.1191 13.6101 50.2082 0
3164 1 7.28468 14.8094 51.4679 0
3163 1 6.51311 16.0126 51.5257 0
3166 1 8.71769 14.7471 51.2303 0
3168 1 9.36751 16.0144 51.1603 0
1111 1 11.5067 14.8047 50.6057 0
2149 1 10.7841 16.0541 50.7949 0
1112 1 12.9436 14.8368 50.3539 0
1113 1 13.6156 16.0072 50.1311 0
3165 1 7.18226 17.2663 51.3915 0
3167 1 8.57348 17.2526 51.2094 0
2148 1 11.5071 17.2824 50.6809 0
1110 1 12.8619 17.2651 50.2674 0
3158 1 9.32845 18.4625 51.1046 0
3156 1 10.7489 18.4448 50.7829 0
4540 1 8.65865 19.7198 51.385 0
4541 1 9.42921 20.9457 51.3748 0
3157 1 11.4577 19.6585 50.554 0
3969 1 10.7507 20.8737 50.9333 0
2547 1 12.7886 19.6824 50.0435 0
3970 1 11.467 22.1398 50.8607 0
2161 1 12.7687 22.1275 50.176 0
2184 1 -2.91294 23.7431 51.3769 0
3161 1 0.320424 23.6145 51.2977 0
3160 1 1.85278 23.7561 51.3888 0
3971 1 11.0088 23.266 51.5361 0
1414 1 13.4415 23.4444 50.0434 0
2183 1 -2.15479 24.851 50.9523 0
3162 1 -0.588197 24.817 50.8879 0
4548 1 2.3375 25.0626 51.2678 0
2541 1 11.7365 24.5446 51.4017 0
1413 1 12.8406 24.6271 50.567 0
2191 1 -1.13171 12.2235 52.976 0
3175 1 0.305178 12.2099 52.707 0
3176 1 3.05355 12.2917 52.1756 0
3171 1 4.42898 12.3356 51.912 0
364 1 -3.34565 13.3547 52.971 0
2192 1 -1.90044 13.4656 52.9565 0
3178 1 0.910565 13.4768 52.5365 0
3177 1 2.34024 13.5612 52.2699 0
3172 1 5.16591 13.5762 51.9385 0
3169 1 6.59102 13.5821 51.6891 0
367 1 -1.99178 15.9025 52.5975 0
2193 1 -1.22245 14.7198 52.7954 0
1135 1 0.913071 16.0451 52.4198 0
2194 1 0.178884 14.7847 52.6491 0
2185 1 2.30374 16.0314 52.2743 0
2189 1 3.04714 14.8223 52.221 0
2190 1 4.44591 14.79 52.0663 0
2188 1 5.10502 16.0565 51.8807 0
369 1 -1.34588 17.1983 52.4632 0
368 1 0.0719275 17.2734 52.2995 0
2186 1 2.92901 17.383 52.0802 0
2187 1 4.39356 17.3067 51.8449 0
1134 1 -2.12879 18.3937 52.4915 0
362 1 0.722778 18.5735 52.1924 0
2147 1 2.20076 18.5557 52.0129 0
3154 1 5.04444 18.561 51.7653 0
3155 1 6.47652 18.5059 51.6186 0
1132 1 -2.26558 20.8469 52.2846 0
1133 1 -1.48523 19.6459 52.3765 0
363 1 -0.0261937 19.8416 52.1047 0
2146 1 2.86929 19.8525 51.8187 0
3153 1 4.3196 19.8355 51.7677 0
4542 1 7.21621 19.791 51.5959 0
360 1 -1.51395 21.8544 51.8323 0
76 1 -0.222523 22.2731 51.573 0
77 1 0.657204 21.0962 51.8108 0
78 1 2.10501 21.1333 51.7699 0
361 1 2.79647 22.4403 51.6513 0
1109 1 4.22836 22.3724 51.9623 0
3152 1 5.05485 21.0766 51.8652 0
4543 1 6.48849 21.0618 51.9362 0
4916 1 7.36554 22.1342 52.2776 0
4918 1 8.8683 22.1026 51.9715 0
2145 1 4.75405 23.532 52.3366 0
4915 1 7.25573 23.3931 52.7933 0
4920 1 9.70835 23.2779 52.2333 0
4549 1 3.55593 25.5313 51.8383 0
3978 1 4.73097 24.8377 52.4488 0
3979 1 5.80362 25.8567 52.7066 0
3973 1 7.19282 25.8415 52.9496 0
4917 1 7.83835 24.5679 53.0401 0
4919 1 9.26089 24.4453 52.9473 0
2539 1 10.0574 25.6075 52.8606 0
2540 1 11.2658 25.6588 52.0805 0
4258 1 -2.12422 31.9915 48.282 0
4922 1 -0.680974 31.9117 48.1864 0
4927 1 2.23159 32.0308 48.2944 0
4257 1 -2.74297 33.2649 48.0607 0
4925 1 0.0817249 33.1456 47.964 0
4926 1 1.50923 33.2383 48.0227 0
4734 1 4.41629 33.3745 48.3557 0
4256 1 -2.05359 34.4817 47.7622 0
4737 1 -0.629104 34.4654 47.7968 0
4739 1 2.22114 34.5093 48.02 0
4254 1 3.62982 34.5392 48.1589 0
3489 1 -2.04297 36.9616 47.6272 0
3488 1 -2.74034 35.7699 47.5899 0
4725 1 -0.654866 37.0041 47.7457 0
4738 1 0.0872336 35.7121 47.7583 0
4740 1 1.46742 35.7794 47.9264 0
4756 1 2.08973 37.0232 48.1043 0
4757 1 3.55421 37.0719 48.1846 0
4253 1 4.3385 35.8483 48.2387 0
4255 1 5.77657 35.8554 48.3103 0
4296 1 6.48207 37.0964 48.2225 0
4298 1 7.95576 37.145 48.2624 0
4728 1 -2.53415 38.2262 47.7536 0
4726 1 -0.0372909 38.3081 47.917 0
4755 1 1.40967 38.2581 48.0928 0
4758 1 4.27818 38.3032 48.171 0
4300 1 5.74545 38.3255 48.1555 0
4297 1 8.65599 38.3874 48.2258 0
3521 1 10.0618 38.4066 48.4168 0
4729 1 -2.28246 39.5227 48.0451 0
4251 1 -0.811345 39.5295 48.0199 0
5003 1 2.10915 39.5307 48.2331 0
5000 1 3.53074 39.535 48.1997 0
4301 1 6.47084 39.6291 48.1148 0
4295 1 7.92805 39.6148 48.0852 0
1466 1 14.6902 25.9617 49.6708 0
1482 1 15.3272 27.2399 49.4274 0
1480 1 16.7428 27.245 49.2098 0
554 1 17.5417 26.0052 49.0642 0
1424 1 19.6225 27.2898 48.6865 0
1425 1 18.9909 26.0308 48.8248 0
2522 1 -2.95829 28.4688 49.7076 0
4545 1 -0.0520601 28.4352 49.5487 0
5038 1 1.4625 28.4835 49.5769 0
1485 1 14.524 28.4631 49.6939 0
1481 1 17.4381 28.5222 49.025 0
555 1 18.8828 28.513 48.7666 0
3490 1 -2.22873 29.6625 49.1507 0
4544 1 -0.792066 29.5963 49.0468 0
4923 1 0.00701753 30.7274 48.5704 0
5036 1 2.19516 29.634 49.1317 0
5043 1 3.61221 29.8024 49.4514 0
1484 1 15.2322 29.714 49.4569 0
1483 1 16.6792 29.7158 49.1802 0
1462 1 19.538 29.784 48.5664 0
3491 1 -2.90646 30.9002 48.7865 0
4924 1 1.51256 30.7773 48.5889 0
4921 1 3.65 32.1157 48.519 0
5040 1 4.35195 30.9773 49.0668 0
5045 1 5.81193 31.0126 49.2643 0
4735 1 6.56758 32.2048 48.9227 0
4733 1 7.99883 32.2302 49.1954 0
3976 1 8.62283 31.1078 49.8055 0
1474 1 10.0468 31.029 49.8732 0
1478 1 10.802 32.2646 49.4974 0
1477 1 12.2748 32.1515 49.4795 0
552 1 12.96 30.9405 49.7912 0
551 1 14.4226 30.9116 49.554 0
553 1 15.1241 32.1774 49.3548 0
134 1 16.6006 32.1999 49.1471 0
549 1 17.3678 30.9694 49.0185 0
1459 1 18.7877 30.9866 48.7752 0
1463 1 19.4857 32.2425 48.8754 0
4736 1 5.83036 33.3806 48.5671 0
4732 1 8.71573 33.4844 48.925 0
2582 1 10.1557 33.5037 49.1427 0
1479 1 12.9648 33.4097 49.2532 0
1473 1 14.4005 33.4038 49.2411 0
1457 1 17.2784 33.4509 49.1725 0
1458 1 18.7284 33.4654 49.0798 0
4730 1 6.51689 34.6312 48.4996 0
4731 1 7.95892 34.709 48.6241 0
4292 1 10.8456 34.7295 48.9493 0
4291 1 12.2968 34.7361 49.0917 0
1472 1 15.0684 34.6995 49.209 0
1456 1 16.5487 34.6924 49.1464 0
4287 1 19.4035 34.788 49.0972 0
2581 1 8.66676 35.9352 48.5482 0
4293 1 10.1039 35.9709 48.7169 0
4294 1 10.782 37.2138 48.651 0
4289 1 12.9686 35.9671 48.9752 0
4290 1 12.2164 37.2019 48.8301 0
2578 1 14.4147 35.99 49.1087 0
3516 1 17.2501 35.9821 49.0875 0
4288 1 18.6731 36.0087 49.1287 0
3520 1 12.9299 38.4688 48.8127 0
2580 1 15.1179 37.2892 49.0596 0
2579 1 14.3549 38.5067 48.9211 0
3517 1 16.5321 37.237 49.0685 0
3518 1 17.2429 38.4595 49.2164 0
3879 1 18.6482 38.4489 49.3131 0
4285 1 19.3721 37.2364 49.2284 0
3522 1 10.7754 39.6926 48.5277 0
3519 1 12.1788 39.7082 48.6708 0
3482 1 15.0888 39.7457 48.9106 0
3483 1 16.5491 39.7039 49.0782 0
4473 1 19.3907 39.7298 49.5142 0
2182 1 -2.98408 26.098 50.6347 0
2521 1 -2.21997 27.2876 50.1503 0
3981 1 -0.743655 27.2199 50.0382 0
3982 1 0.026924 26.0501 50.481 0
4547 1 1.50737 26.1361 50.6628 0
5039 1 2.13563 27.438 50.276 0
4546 1 4.02468 26.8465 51.5514 0
1470 1 11.5609 26.9679 51.4898 0
1465 1 13.3518 25.9466 50.2203 0
1471 1 12.6435 27.1149 50.6402 0
5042 1 4.22538 28.8064 50.1865 0
5037 1 3.48131 27.6827 50.5925 0
5041 1 5.56022 28.9772 50.6193 0
3159 1 8.40457 29.0152 51.0715 0
1475 1 9.84065 28.8322 51.0881 0
1468 1 13.0541 28.4067 50.1776 0
5044 1 6.41373 29.9913 50.0581 0
3977 1 7.81102 30.0149 50.3156 0
1476 1 10.8006 29.8511 50.3968 0
1467 1 12.2439 29.7312 50.1831 0
3980 1 5.32112 27.0373 52.0733 0
3974 1 8.05262 27.0075 52.6159 0
550 1 9.4515 26.9187 52.6536 0
3972 1 6.12902 28.087 51.5709 0
3975 1 7.53838 28.0991 51.8235 0
1469 1 10.3748 27.735 51.8268 0
2516 1 -2.3702 41.8695 48.2977 0
4727 1 -3.10754 40.6337 48.2911 0
3487 1 -0.883441 41.9317 48.3417 0
4252 1 -0.0854751 40.7232 48.2462 0
5002 1 1.32981 40.7336 48.3188 0
5001 1 2.03694 41.9861 48.3215 0
4999 1 4.25221 40.8121 48.1396 0
4998 1 3.49963 42.0259 48.2307 0
4299 1 5.68672 40.8208 48.0125 0
3523 1 8.63247 40.8925 48.1326 0
1403 1 10.0842 40.8996 48.3196 0
2515 1 -3.05606 43.1305 48.393 0
4987 1 -0.149953 43.1724 48.3667 0
4986 1 1.33787 43.2637 48.3059 0
4250 1 4.19526 43.2715 48.2 0
2520 1 5.67739 43.3282 48.1317 0
3525 1 6.41707 42.0731 48.093 0
3524 1 7.83969 42.0859 48.185 0
2517 1 8.55588 43.3631 48.4039 0
4717 1 10.8012 42.1542 48.4349 0
4748 1 -2.29552 44.3962 48.3455 0
4988 1 -0.875761 44.4269 48.3608 0
4989 1 2.06262 44.5471 48.3566 0
4249 1 3.49476 44.5875 48.3432 0
2519 1 6.32466 44.5736 48.3916 0
4749 1 -2.2751 46.8689 48.239 0
4747 1 -2.99144 45.6492 48.3082 0
4991 1 -0.154392 45.6895 48.3735 0
4990 1 1.28491 45.7694 48.3756 0
3512 1 -2.93454 48.0576 48.2595 0
4750 1 -0.843049 46.9653 48.3557 0
4277 1 -2.29783 49.3677 48.431 0
4246 1 12.91 40.9215 48.6347 0
4247 1 14.3179 40.9947 48.7684 0
3484 1 17.2592 40.9937 49.172 0
4472 1 18.6816 40.9855 49.3293 0
4718 1 10.0292 43.387 48.5677 0
4715 1 12.2503 42.1243 48.5566 0
4721 1 12.906 43.4176 48.849 0
4248 1 15.0485 42.2868 48.8953 0
4719 1 14.3261 43.4899 48.9053 0
3485 1 16.512 42.2167 49.0643 0
3873 1 17.2515 43.4973 49.2622 0
3872 1 18.658 43.5655 49.4615 0
4471 1 19.3448 42.2623 49.4573 0
2518 1 7.80537 44.5728 48.4869 0
4716 1 10.7208 44.5837 48.9307 0
4722 1 12.135 44.5866 49.0705 0
4723 1 15.0049 44.7075 49.3083 0
4467 1 16.4644 44.72 49.3887 0
3874 1 19.375 44.8087 49.6679 0
3514 1 4.15669 45.8242 48.5992 0
3515 1 5.56897 45.7815 48.6696 0
4712 1 8.48552 45.7307 48.9527 0
4714 1 7.73831 46.8746 49.3484 0
4711 1 9.91883 45.7325 49.1135 0
4980 1 10.5961 46.8522 49.6449 0
4720 1 12.8428 45.8136 49.4506 0
4724 1 14.2761 45.9074 49.5101 0
4465 1 17.1701 45.9546 49.6581 0
3875 1 18.6501 46.0309 49.7141 0
4746 1 -0.181801 48.236 48.5388 0
4745 1 1.2593 48.2446 48.698 0
4281 1 1.98505 47.0412 48.56 0
3513 1 3.45696 47.0446 48.6768 0
4995 1 4.07292 48.3428 48.9978 0
4996 1 5.49734 48.2053 49.2392 0
4282 1 6.26872 46.974 49.1054 0
4713 1 8.49632 47.997 49.9456 0
4981 1 12.0458 46.9622 49.8165 0
4466 1 14.9415 47.1433 49.7797 0
4464 1 16.429 47.1939 49.8231 0
3871 1 19.3162 47.3092 49.8679 0
3870 1 18.5513 48.5014 49.9789 0
4742 1 -0.934529 49.4806 48.6052 0
4744 1 1.87134 49.5071 49.0004 0
4994 1 3.29248 49.6207 49.2164 0
4997 1 6.41012 49.0648 49.7817 0
4741 1 -0.280569 50.7107 48.7518 0
4743 1 1.08694 50.7414 49.0389 0
4992 1 3.80634 50.9192 49.6528 0
4278 1 -0.919078 51.8795 48.912 0
546 1 -0.794503 53.0988 49.456 0
1445 1 0.697352 53.3348 49.6565 0
1454 1 1.62111 52.1597 49.4451 0
1455 1 3.06854 52.2094 49.6428 0
1444 1 -3.22591 53.9475 49.8604 0
547 1 -1.80036 54.1646 49.7356 0
1452 1 1.11841 54.6746 49.818 0
1451 1 2.60089 54.8503 49.8764 0
1446 1 3.58243 53.6715 49.9164 0
1612 1 18.5983 54.9293 49.9237 0
4983 1 9.89 47.9777 50.0754 0
4985 1 12.7248 48.1337 50.2775 0
3486 1 14.1289 48.2614 50.1934 0
3035 1 17.1323 48.4166 50.0535 0
4751 1 7.64799 49.1806 50.2665 0
4982 1 10.5376 49.1062 50.6537 0
4984 1 11.9647 49.2656 50.7093 0
2724 1 14.8285 49.5129 50.4222 0
2723 1 16.2963 49.6205 50.2564 0
3867 1 19.2005 49.8457 50.0278 0
4993 1 5.04198 50.9871 50.2068 0
4753 1 7.43401 51.2942 51.2495 0
4754 1 6.02368 51.6623 50.7446 0
4752 1 8.24386 50.1947 50.9596 0
2570 1 9.67682 50.2061 51.1272 0
2571 1 10.339 51.5127 51.387 0
3591 1 11.7747 51.609 51.2262 0
3590 1 12.6141 50.4934 50.9469 0
3589 1 14.0316 50.644 50.7194 0
3585 1 16.9557 50.9283 50.3669 0
3587 1 18.4186 51.0638 50.1839 0
2573 1 5.94062 53.1111 50.8546 0
2568 1 8.12082 52.5236 51.542 0
2569 1 9.58514 52.6644 51.496 0
4765 1 12.3693 52.9502 51.0806 0
4320 1 14.6622 51.9598 50.7036 0
4766 1 13.8118 53.1017 50.8017 0
4322 1 16.1078 52.1143 50.5281 0
3588 1 18.9528 52.4017 50.1128 0
2572 1 4.95826 54.0735 50.427 0
2577 1 7.25522 53.6344 51.1732 0
2576 1 7.73613 54.8524 51.0246 0
1453 1 10.0837 53.942 51.1829 0
4768 1 11.4986 54.1032 50.9763 0
5007 1 14.3146 54.4186 50.6501 0
4321 1 16.6373 53.4451 50.3527 0
5009 1 15.7356 54.5896 50.3433 0
3586 1 18.0968 53.6254 50.1043 0
626 1 -2.59076 68.042 48.1009 0
2510 1 -3.23573 69.1265 47.4915 0
545 1 -1.23743 55.548 49.8375 0
1447 1 0.197474 55.7909 49.8086 0
1450 1 3.08871 56.2333 49.9892 0
1613 1 17.7005 56.0282 49.8958 0
1449 1 0.685846 57.1701 49.8314 0
1448 1 2.10439 57.3669 49.8701 0
650 1 18.1121 57.4059 49.8762 0
4242 1 -0.233784 58.3453 49.9041 0
4239 1 0.233864 59.6768 49.8015 0
2567 1 2.6422 58.7701 49.8191 0
4276 1 4.05868 59.0598 49.9811 0
2511 1 8.3178 59.7686 49.9791 0
646 1 13.5457 59.2744 49.8759 0
647 1 14.9878 59.4872 49.8464 0
649 1 15.8651 58.3649 49.9024 0
648 1 17.2752 58.527 49.8901 0
4709 1 -2.09246 60.6136 49.9619 0
4710 1 -0.694547 60.7747 49.8537 0
3471 1 1.70298 59.8822 49.8332 0
3472 1 2.18242 61.2681 49.8761 0
4274 1 4.56643 60.3778 49.9535 0
4272 1 5.97842 60.6281 49.9714 0
4328 1 8.8722 61.0731 49.8507 0
4325 1 10.2808 61.3179 49.7096 0
3592 1 11.2315 60.2288 49.8307 0
3593 1 12.6401 60.4275 49.8294 0
2717 1 15.4676 60.8374 49.7925 0
1609 1 17.7602 59.8525 49.9225 0
2718 1 16.8869 61.0078 49.8367 0
4707 1 -2.97988 61.8557 49.9633 0
4708 1 -0.161409 62.1744 49.7778 0
4243 1 1.31793 62.4035 49.8423 0
3507 1 3.65945 61.5172 49.9879 0
3504 1 6.55144 61.9899 49.9451 0
4327 1 7.9688 62.21 49.8731 0
4323 1 10.7909 62.6211 49.6086 0
3595 1 12.1948 62.8764 49.6846 0
3594 1 13.1339 61.744 49.7508 0
2719 1 14.5735 61.991 49.7287 0
2721 1 17.4022 62.3546 49.7635 0
2713 1 18.7881 62.6349 49.856 0
4975 1 -2.55674 63.3041 49.7586 0
4977 1 -1.05961 63.3445 49.7172 0
4979 1 -0.396384 64.6599 49.5911 0
4245 1 1.88205 63.7166 49.9062 0
3480 1 6.16477 64.4271 49.9743 0
3596 1 7.6206 64.6245 49.8448 0
4326 1 8.49878 63.5235 49.7736 0
4324 1 9.87194 63.7757 49.6522 0
2729 1 12.7612 64.2055 49.6402 0
1611 1 14.1737 64.4186 49.6038 0
2720 1 15.06 63.2826 49.6666 0
2722 1 16.5314 63.4846 49.6068 0
2714 1 19.3564 63.9259 49.7132 0
4976 1 -2.65405 65.7915 49.1284 0
4978 1 -1.2104 65.8298 49.2941 0
4244 1 1.00263 64.8786 49.8111 0
3510 1 1.60238 66.2239 49.7897 0
3481 1 5.2831 65.5235 49.9586 0
4334 1 8.14048 65.9667 49.7318 0
3597 1 10.4132 65.1004 49.6204 0
4333 1 9.56122 66.2302 49.6026 0
2730 1 11.878 65.3079 49.7024 0
2741 1 14.7404 65.7251 49.456 0
2739 1 16.1793 65.9157 49.4192 0
1610 1 17.0838 64.8328 49.561 0
645 1 18.5154 65.0336 49.578 0
627 1 -0.58647 67.1256 49.106 0
2512 1 0.749589 67.3372 49.513 0
3477 1 3.56713 67.6992 49.9918 0
3508 1 3.00212 66.4278 49.9499 0
3479 1 5.8709 66.8783 49.9287 0
4332 1 7.24832 67.1029 49.8217 0
4329 1 10.0808 67.5549 49.5992 0
1624 1 11.4845 67.7467 49.7024 0
1623 1 12.404 66.6696 49.6868 0
2742 1 13.8557 66.8517 49.5877 0
3602 1 16.7497 67.2589 49.4062 0
3603 1 18.1611 67.4738 49.3202 0
2744 1 19.0733 66.3576 49.3832 0
628 1 -1.26521 68.2426 48.544 0
1591 1 -0.709554 69.5519 48.5202 0
3476 1 2.68821 68.8442 49.8454 0
2513 1 1.3426 68.6298 49.4891 0
4331 1 7.81906 68.4509 49.8185 0
4330 1 9.20767 68.6429 49.7526 0
1621 1 12.0362 69.1187 49.776 0
1622 1 13.4665 69.2932 49.7831 0
2740 1 14.433 68.1669 49.688 0
3605 1 15.8457 68.3897 49.5858 0
3604 1 18.6443 68.8206 49.2617 0
2574 1 5.4226 55.4798 50.3982 0
513 1 4.4823 56.5295 50.186 0
2575 1 6.83712 55.8211 50.6166 0
548 1 9.22059 55.0323 50.9887 0
509 1 9.72968 56.3118 50.5789 0
4767 1 12.0121 55.3679 50.6426 0
511 1 11.1201 56.4802 50.4221 0
5004 1 13.4343 55.5563 50.4951 0
5008 1 16.2719 55.8643 50.0788 0
543 1 -2.11043 56.7062 50.0798 0
4241 1 -1.6969 58.1115 50.0604 0
4275 1 4.96355 57.9122 50.1122 0
512 1 7.33016 57.1061 50.3192 0
4273 1 6.42382 58.1843 50.1647 0
508 1 8.79162 57.3703 50.3326 0
510 1 11.6497 57.7729 50.0895 0
160 1 13.0494 57.9458 50.0882 0
5005 1 13.9725 56.8493 50.2523 0
5006 1 15.3933 57.0089 50.0025 0
294 1 19.5313 57.6191 50.0058 0
4240 1 -2.56168 59.2172 50.2687 0
4271 1 6.90152 59.5422 50.0483 0
1402 1 9.27447 58.6955 50.1466 0
1401 1 10.7255 58.9031 50.0187 0
1608 1 19.1196 60.115 50.1115 0
3506 1 4.19244 62.8376 50.0454 0
2712 1 19.5926 61.5168 50.1444 0
3511 1 3.30845 63.9682 50.0039 0
3505 1 5.61432 63.0873 50.0464 0
3509 1 3.84452 65.2638 50.0148 0
3473 1 5.48652 69.3129 50.0827 0
3478 1 4.9596 67.9719 50.0081 0
3470 1 -2.67291 70.4624 47.477 0
3469 1 -1.48249 70.7257 48.0803 0
3468 1 -1.14398 72.0704 48.4249 0
4302 1 -2.13028 73.1825 48.2732 0
2700 1 -3.0872 78.2584 48.3797 0
2699 1 -2.33922 79.4749 48.2529 0
2509 1 -2.85523 80.8247 48.1847 0
630 1 -1.75408 81.8003 48.2035 0
631 1 -1.80083 83.1118 48.127 0
1590 1 0.567517 69.7645 49.0896 0
1589 1 0.93594 71.0793 49.3194 0
3474 1 3.20748 70.185 49.9993 0
1619 1 9.76048 69.9488 49.9282 0
1620 1 11.1322 70.1775 49.9405 0
1625 1 13.9925 70.6344 49.8195 0
3606 1 16.3197 69.707 49.5505 0
2747 1 15.4009 70.8203 49.6608 0
3607 1 17.754 69.9265 49.4022 0
1592 1 0.0976467 72.2696 49.0762 0
2728 1 2.27392 71.3227 49.7909 0
2725 1 2.77181 72.7063 49.9198 0
2732 1 13.0664 71.7211 49.9764 0
3623 1 15.9351 72.1429 49.7562 0
2748 1 18.273 71.2647 49.4687 0
3622 1 17.3871 72.353 49.6529 0
2745 1 19.6485 71.5535 49.3289 0
637 1 0.491843 73.6105 49.426 0
636 1 1.88006 73.8381 49.8096 0
3624 1 15.0213 73.2971 49.9151 0
3620 1 17.8689 73.7041 49.6217 0
2753 1 19.2478 73.9736 49.3992 0
4304 1 -2.65915 75.6294 48.4812 0
4303 1 -1.73228 74.5481 48.6222 0
3570 1 -0.36671 74.7526 49.1096 0
635 1 2.36623 75.1693 49.8613 0
3625 1 15.5316 74.5954 49.9909 0
3621 1 16.9304 74.8459 49.7916 0
2754 1 19.7077 75.3172 49.2002 0
3569 1 -2.22065 77.0042 48.6274 0
3572 1 -0.735938 77.1818 48.9682 0
3571 1 0.123808 76.0934 49.2773 0
1603 1 1.47699 76.3506 49.6569 0
3619 1 16.5204 77.3047 49.7364 0
2751 1 17.4105 76.1904 49.5531 0
2752 1 18.8021 76.377 49.2282 0
2698 1 -0.132761 78.5431 48.8936 0
1605 1 1.18345 78.9116 49.4532 0
1604 1 2.00767 77.7216 49.7625 0
3618 1 16.9488 78.6078 49.437 0
3582 1 18.2559 78.8133 48.9388 0
3581 1 19.1748 77.744 48.8778 0
2697 1 -0.953994 79.5769 48.4896 0
629 1 1.54002 80.3767 49.5889 0
3614 1 16.0563 79.7239 49.6703 0
3583 1 18.6562 80.0909 48.6265 0
632 1 -0.579664 81.0104 48.5645 0
633 1 0.666525 81.4669 49.087 0
3112 1 16.5804 81.0322 49.4148 0
3114 1 15.7745 82.1745 49.5517 0
3111 1 17.8519 81.2398 48.8494 0
3110 1 18.7713 82.3658 48.5181 0
1594 1 0.926004 82.7887 49.1768 0
1593 1 1.51203 83.8828 49.7567 0
4537 1 16.0667 83.5679 49.4275 0
4909 1 18.5113 83.76 48.6586 0
3475 1 4.63346 70.4588 50.1356 0
651 1 7.41693 70.8923 50.0938 0
2514 1 6.91023 69.5631 50.0165 0
1618 1 8.88777 71.0761 50.1193 0
2727 1 5.09139 71.7557 50.2195 0
1614 1 6.51027 71.986 50.2098 0
2733 1 9.3523 72.4305 50.2155 0
2738 1 10.7707 72.6325 50.2538 0
2731 1 11.6581 71.5126 50.1099 0
2726 1 4.19232 72.8867 50.1241 0
1616 1 4.66019 74.2507 50.154 0
1615 1 7.00402 73.3199 50.2942 0
2735 1 8.44543 73.5443 50.3136 0
2737 1 11.2663 73.989 50.3575 0
3600 1 12.6974 74.1744 50.3046 0
3598 1 13.5997 73.0594 50.0508 0
638 1 3.76085 75.3832 50.1313 0
1606 1 6.61756 75.7961 50.4518 0
1617 1 6.11918 74.4825 50.2544 0
1607 1 8.05855 76.0091 50.5239 0
2734 1 8.97543 74.9034 50.4336 0
2736 1 10.3982 75.1549 50.483 0
3601 1 13.2522 75.5157 50.3485 0
3599 1 14.6528 75.7309 50.2127 0
2705 1 4.2895 76.7091 50.244 0
2706 1 5.74384 76.9038 50.4845 0
2701 1 8.58826 77.3255 50.7294 0
2703 1 10.0331 77.6166 50.6864 0
1626 1 10.952 76.4604 50.5615 0
2749 1 12.3583 76.6129 50.473 0
3615 1 15.1953 77.0762 50.1441 0
2708 1 4.12653 78.9814 50.3933 0
2707 1 3.36668 77.8539 50.1049 0
3575 1 6.27402 78.2435 50.6776 0
3576 1 7.67741 78.4569 50.7818 0
2704 1 10.5982 78.9062 50.7706 0
1627 1 12.0209 79.1001 50.7073 0
2750 1 12.8904 77.9486 50.4608 0
3617 1 14.2883 78.1585 50.3525 0
3574 1 5.40704 79.3979 50.6361 0
3573 1 5.83066 80.7399 50.7253 0
3578 1 8.25007 79.7367 50.9302 0
2702 1 9.65365 79.9411 50.9697 0
644 1 12.4847 80.5043 50.6728 0
2710 1 13.8177 80.7108 50.3041 0
3616 1 14.6928 79.5586 50.1251 0
634 1 2.65566 80.9922 50.1885 0
1602 1 3.44048 82.0552 50.4671 0
1598 1 4.89167 81.9035 50.7758 0
3577 1 7.32259 80.8899 50.9262 0
159 1 7.94217 82.1845 51.134 0
640 1 9.29377 82.3178 51.2884 0
641 1 10.1643 81.2192 51.1155 0
642 1 11.5521 81.5141 51.0307 0
3113 1 14.4017 81.9748 50.0498 0
1601 1 2.85596 83.4619 50.357 0
1597 1 5.67463 83.0525 51.1017 0
624 1 7.07966 83.3262 51.2673 0
639 1 10.1545 83.4826 51.3444 0
643 1 11.582 82.9815 51.101 0
3955 1 12.6053 83.8088 50.7114 0
3956 1 13.8088 83.3263 50.2454 0
4911 1 19.6107 84.6024 48.2931 0
1596 1 -1.62757 84.2848 48.5066 0
2691 1 -1.54055 85.3293 49.3623 0
1595 1 1.1156 85.3432 49.7848 0
4538 1 14.7268 85.615 49.9073 0
4539 1 14.8888 84.2096 49.8504 0
4910 1 17.2532 84.3468 49.0538 0
2693 1 -2.83363 85.8782 49.8064 0
2692 1 -0.256314 86.0087 49.6094 0
623 1 2.24175 86.413 49.8132 0
4906 1 15.8708 86.387 49.5774 0
4914 1 17.143 85.774 49.1714 0
4913 1 18.2532 86.6078 48.9435 0
4912 1 19.518 85.9945 48.549 0
2696 1 -0.309613 87.5162 49.7417 0
653 1 0.799743 88.4834 49.6176 0
654 1 2.08755 87.9021 49.6653 0
652 1 3.17711 88.8279 49.6674 0
162 1 4.51648 88.3562 49.9238 0
4536 1 14.4873 88.3455 49.9877 0
4905 1 15.7563 87.8055 49.6847 0
4908 1 18.1399 88.031 49.2169 0
4907 1 16.886 88.6035 49.4659 0
3950 1 19.3208 88.8166 49.013 0
1637 1 -0.739105 90.4901 49.7183 0
655 1 0.542102 89.9149 49.5259 0
657 1 2.99052 90.2671 49.4876 0
327 1 5.63493 89.2617 49.8501 0
3115 1 8.06646 89.6871 49.9755 0
3120 1 10.5544 90.0286 49.9075 0
4904 1 13.0117 90.3615 49.7685 0
4899 1 14.3241 89.7932 49.818 0
4531 1 16.7856 90.0228 49.3632 0
3107 1 19.1815 90.2687 48.9302 0
1634 1 -0.966467 91.922 49.8757 0
656 1 1.65358 90.7886 49.3938 0
161 1 4.08697 91.1968 49.5554 0
325 1 5.40775 90.673 49.6133 0
2080 1 6.53773 91.5873 49.5754 0
3116 1 7.8786 91.0628 49.7254 0
3117 1 8.97737 91.9461 49.576 0
3118 1 10.3399 91.4818 49.6682 0
4903 1 12.8078 91.7667 49.4797 0
4900 1 15.2629 92.0024 49.2641 0
4901 1 15.4732 90.6104 49.4711 0
4529 1 17.8857 90.8662 49.062 0
164 1 0.119226 92.8503 49.7027 0
165 1 1.45826 92.31 49.5031 0
1633 1 2.6336 93.1941 49.6019 0
1632 1 3.90219 92.6531 49.5677 0
1631 1 5.07366 93.5118 49.4841 0
2078 1 6.3733 92.9805 49.4628 0
2081 1 8.79038 93.3743 49.323 0
3948 1 11.4773 92.327 49.4361 0
3949 1 11.3164 93.7149 49.2791 0
4902 1 13.9196 92.6052 49.2115 0
4532 1 16.4164 92.8936 49.0334 0
4530 1 17.6859 92.2607 48.8716 0
3946 1 18.8834 93.1621 48.8132 0
658 1 1.12395 95.1261 49.8329 0
163 1 -0.0398266 94.2431 49.8633 0
1630 1 2.48731 94.5831 49.7372 0
1628 1 4.92983 94.97 49.4879 0
1040 1 7.34685 95.3268 49.3128 0
2079 1 7.47108 93.8767 49.3078 0
2058 1 9.98556 94.222 49.3005 0
4870 1 12.4368 94.5684 49.2239 0
4866 1 14.9175 94.8193 49.0303 0
4865 1 13.7552 93.9724 49.0563 0
4528 1 16.2469 94.2872 49.0266 0
4527 1 17.3907 95.1593 48.9951 0
3943 1 19.887 95.3909 48.7981 0
3947 1 18.7049 94.6076 48.8313 0
1663 1 0.989726 96.5228 49.9047 0
1629 1 3.60421 95.4988 49.6427 0
2773 1 3.42497 96.9083 49.7155 0
323 1 6.03727 95.8648 49.3745 0
1039 1 8.48643 96.1721 49.277 0
2057 1 9.79644 95.6696 49.3233 0
3913 1 10.918 96.5537 49.2691 0
4868 1 13.425 96.8417 49.1059 0
4869 1 12.2464 95.9882 49.1144 0
4867 1 14.7574 96.2753 48.9967 0
4894 1 17.2184 96.548 48.9698 0
3945 1 19.6722 96.7985 48.8141 0
1661 1 -0.507886 98.5209 49.9995 0
2774 1 2.07702 97.4257 49.827 0
2776 1 4.54184 97.8078 49.5619 0
1641 1 5.87369 97.3057 49.4016 0
1642 1 6.99847 98.1597 49.3505 0
324 1 8.3226 97.6073 49.2578 0
4502 1 9.44158 98.485 49.2705 0
4505 1 10.7773 97.9721 49.3313 0
4500 1 13.2045 98.303 49.1578 0
4896 1 15.9051 97.1516 48.9139 0
4897 1 15.695 98.5496 48.9956 0
4893 1 18.3397 97.3886 48.8679 0
1599 1 3.79111 84.5818 50.5922 0
1600 1 5.08237 84.383 51.0557 0
1586 1 6.0907 85.3713 51.2549 0
1588 1 7.41368 84.7829 51.3597 0
2688 1 8.59841 85.5107 51.2178 0
2687 1 9.92915 84.9001 51.2409 0
3954 1 12.4229 85.2215 50.6587 0
2694 1 -2.77297 87.2303 50.2606 0
158 1 3.58257 85.9924 50.1889 0
1585 1 5.92756 86.6701 50.8696 0
157 1 4.66431 86.9751 50.3052 0
2690 1 8.39257 86.9068 50.864 0
3108 1 11.0965 85.78 50.8737 0
3109 1 10.8729 87.2004 50.5364 0
3953 1 13.4714 86.1267 50.2688 0
2695 1 -1.59047 88.1093 50.1057 0
1587 1 7.08424 87.471 50.6186 0
326 1 6.95453 88.8051 50.1476 0
2689 1 9.57667 87.786 50.5702 0
4534 1 11.9774 88.0887 50.2077 0
4535 1 13.322 87.4983 50.1566 0
1639 1 -2.96917 90.1744 50.6134 0
1638 1 -1.79025 89.5876 50.0438 0
3119 1 9.37833 89.1532 50.1547 0
4533 1 11.8816 89.4791 50.0045 0
1636 1 -3.3319 91.6183 50.6285 0
1635 1 -2.31913 92.465 50.1386 0
168 1 -2.56982 93.9022 50.1288 0
167 1 -1.37609 94.7704 50.0336 0
169 1 -2.77744 96.745 50.2037 0
170 1 -1.47603 96.2186 50.0861 0
171 1 -2.93602 98.2372 50.1489 0
1662 1 -0.311405 97.0906 50.0275 0
664 1 -3.00182 107.335 48.0516 0
1659 1 -1.69435 106.852 48.3707 0
663 1 -3.16093 108.729 47.8139 0
2763 1 -2.00208 109.584 47.8625 0
2764 1 -0.730475 109.136 48.2611 0
2765 1 -2.40273 110.916 47.8719 0
1664 1 0.56519 99.4156 49.8433 0