ITEM: TIMESTEP
0
ITEM: NUMBER OF ATOMS
96420
ITEM: BOX BOUNDS ff pp pp
0.0000000000000000e+00 6.2041497800000002e+02
0.0000000000000000e+00 4.1362756350000001e+02
0.0000000000000000e+00 1.0000000000000000e+02
ITEM: ATOMS id type x y z f_5
744 1 51.4734 15.4884 46.7428 0
793 1 51.3028 17.9498 46.7784 0
122 1 35.781 20.1805 46.8188 0
537 1 51.0846 0.468182 48.03 0
1521 1 48.0129 2.85349 48.1927 0
1514 1 48.8028 1.60981 48.2537 0
1522 1 50.8649 2.95722 47.6865 0
1515 1 50.2506 1.63218 47.9803 0
1531 1 50.0599 4.19657 47.6996 0
1530 1 48.6591 4.0886 47.9211 0
1540 1 46.4981 5.26224 48.2501 0
1541 1 47.8732 5.30001 47.9447 0
1542 1 50.6705 5.47139 47.4923 0
1548 1 43.4246 7.52564 48.4034 0
1550 1 46.2673 7.71052 47.9141 0
1549 1 45.6869 6.42562 48.2116 0
1551 1 47.687 7.74124 47.7016 0
1552 1 48.4906 6.56069 47.7271 0
1553 1 49.9253 6.6906 47.5486 0
1560 1 44.0018 8.77616 48.1287 0
1561 1 45.4387 8.86246 47.8737 0
1563 1 48.3262 8.99776 47.615 0
1562 1 49.7611 9.145 47.4763 0
1554 1 50.5556 7.92476 47.3874 0
648 1 41.8127 9.94743 48.3725 0
1565 1 43.222 9.96878 48.1226 0
1566 1 46.0631 10.155 47.6808 0
1567 1 47.5438 10.2274 47.59 0
649 1 50.3915 10.4375 47.3173 0
673 1 41.6614 12.3834 48.121 0
672 1 41.0408 11.1542 48.3995 0
674 1 43.0592 12.4533 47.936 0
675 1 43.8636 11.2624 47.9528 0
677 1 45.2606 11.3408 47.7013 0
678 1 48.1583 11.5034 47.4501 0
679 1 49.601 11.6524 47.2941 0
704 1 39.4231 13.5429 48.1934 0
705 1 40.8338 13.6196 48.0651 0
706 1 43.6963 13.7217 47.6542 0
707 1 45.1571 13.8195 47.4127 0
676 1 45.9304 12.5854 47.4861 0
709 1 47.9542 13.9846 47.2293 0
708 1 47.3545 12.6739 47.3628 0
712 1 51.6087 12.9911 46.9326 0
711 1 50.195 12.9091 47.0882 0
735 1 37.1966 14.6694 48.2216 0
737 1 38.5961 14.6982 48.0165 0
739 1 41.4916 14.8231 47.7509 0
740 1 42.9055 14.9143 47.5683 0
741 1 45.7307 15.1102 47.2377 0
742 1 47.1641 15.1728 47.1991 0
710 1 49.4012 14.1044 47.0681 0
743 1 50.0211 15.3743 46.8944 0
1460 1 34.1143 16.9907 47.9329 0
734 1 34.9507 15.8377 48.1746 0
95 1 37.0662 16.9824 47.4743 0
736 1 36.3744 15.8511 47.9276 0
96 1 38.5122 17.1355 47.5965 0
738 1 39.2917 15.9306 47.7762 0
767 1 40.7273 16.0333 47.6367 0
768 1 43.5244 16.182 47.2983 0
769 1 44.946 16.2857 47.1502 0
770 1 47.8243 16.4462 47.1241 0
771 1 49.2332 16.5384 46.9667 0
105 1 34.8499 18.0063 47.2063 0
106 1 36.3089 18.04 47.0611 0
107 1 39.095 18.4334 47.5133 0
108 1 40.5014 18.5152 47.4729 0
97 1 41.3236 17.2967 47.45 0
109 1 43.3241 18.6899 47.2149 0
98 1 42.6954 17.3827 47.2934 0
110 1 44.7741 18.7849 47.0815 0
1572 1 45.5631 17.5702 47.0657 0
1601 1 47.0001 17.6759 47.0833 0
794 1 49.8722 17.8481 46.898 0
120 1 33.548 20.193 47.6897 0
121 1 34.5251 19.3936 47.0273 0
123 1 36.9364 19.3426 46.8939 0
124 1 38.2756 19.6022 47.3059 0
125 1 41.1388 19.7993 47.459 0
126 1 42.5658 19.8553 47.3678 0
127 1 45.4366 20.0966 47.0805 0
128 1 46.8685 20.1384 47.0066 0
112 1 47.6533 18.961 46.9853 0
479 1 49.1205 19.128 46.9473 0
137 1 34.197 21.4964 47.9195 0
138 1 35.6012 21.4423 47.5173 0
139 1 38.7869 20.954 47.5709 0
141 1 40.3024 20.9806 47.5575 0
142 1 43.2233 21.1541 47.4525 0
143 1 44.6223 21.2684 47.267 0
144 1 47.5544 21.4272 47.0693 0
129 1 49.7603 20.3779 46.9026 0
145 1 48.9612 21.5481 47.1202 0
493 1 51.1625 20.4487 46.8994 0
156 1 36.5624 22.2947 48.0816 0
1579 1 37.9952 22.167 47.9786 0
852 1 38.7923 23.2573 48.4264 0
853 1 40.2249 23.3407 48.2336 0
186 1 40.9836 22.2357 47.8234 0
158 1 42.4357 22.3394 47.7205 0
160 1 45.3016 22.5126 47.308 0
161 1 46.7575 22.6336 47.1889 0
162 1 49.5362 22.8391 47.1258 0
163 1 50.987 22.9329 47.1204 0
470 1 43.1216 23.6232 47.8621 0
876 1 42.3388 24.7007 48.3131 0
177 1 44.4907 23.7224 47.6533 0
469 1 45.1879 24.9565 47.9061 0
172 1 46.6098 25.0508 47.7549 0
173 1 47.3536 23.8892 47.3941 0
175 1 48.7539 23.9942 47.2607 0
176 1 51.6353 24.2204 47.2285 0
895 1 44.4279 26.0522 48.3958 0
1451 1 47.2269 26.3445 47.8755 0
1580 1 48.6295 26.4257 47.7563 0
174 1 49.4187 25.2884 47.4688 0
187 1 50.853 25.3794 47.4594 0
913 1 46.4277 27.459 48.2336 0
753 1 49.2088 27.6921 48.0112 0
1581 1 51.4733 26.6643 47.6776 0
722 1 50.6615 27.7953 47.9673 0
938 1 46.9929 28.7719 48.3853 0
939 1 48.4136 28.8842 48.2931 0
940 1 51.3026 29.0811 48.1874 0
258 1 32.6641 38.7862 48.2861 0
259 1 34.0532 38.9266 47.8813 0
260 1 35.0127 37.9964 48.3636 0
261 1 36.4506 38.268 48.38 0
270 1 31.7891 39.9267 48.2919 0
1 1 34.5408 40.2099 47.4159 0
2 1 35.9546 40.5487 47.488 0
271 1 36.9634 39.5237 47.8986 0
272 1 38.3754 39.9417 48.269 0
3 1 32.2378 41.141 47.8224 0
4 1 33.5692 41.2357 47.3788 0
6 1 36.2577 41.9398 47.4274 0
7 1 37.5783 42.2579 47.5672 0
8 1 38.6319 41.3223 48.0504 0
9 1 32.8114 43.469 48.1228 0
281 1 31.7016 42.4413 48.2248 0
5 1 33.8885 42.6401 47.5169 0
10 1 35.2321 42.9664 47.6026 0
11 1 37.862 43.609 47.9005 0
12 1 35.534 44.2721 48.1169 0
13 1 36.9124 44.608 48.2186 0
14 1 12.4632 0.688087 49.9254 0
15 1 13.8751 0.80644 49.7608 0
16 1 16.6876 1.00083 49.5153 0
17 1 18.0911 1.10468 49.2988 0
8130 1 20.3538 0.090373 48.9447 0
18 1 21.0168 1.3783 49.0373 0
20 1 23.1783 0.297559 48.7905 0
19 1 22.4085 1.50838 48.9285 0
21 1 24.5867 0.421957 48.7865 0
23 1 27.4759 0.550573 49.1974 0
532 1 28.8532 0.646388 49.4465 0
533 1 31.6915 0.724016 49.9474 0
535 1 36.0258 0.994677 49.8903 0
536 1 37.4361 1.09645 49.8079 0
1508 1 40.3424 1.20755 49.6934 0
1509 1 41.7692 1.23621 49.4874 0
8609 1 42.5511 0.0110887 49.4815 0
1510 1 44.6302 1.43882 49.145 0
8590 1 43.9639 0.143085 49.3264 0
1512 1 46.8073 0.270851 48.9899 0
1511 1 46.0353 1.49138 48.9162 0
1513 1 48.1959 0.382593 48.5674 0
483 1 11.6068 1.83649 49.9386 0
24 1 12.2535 3.12904 49.8543 0
26 1 14.485 2.11913 49.7299 0
27 1 15.8889 2.21551 49.6224 0
28 1 18.7646 2.41468 49.4129 0
29 1 20.1673 2.54415 49.3068 0
30 1 23.0298 2.79206 49.1739 0
31 1 24.4993 2.86918 49.1798 0
22 1 25.2699 1.69247 48.9398 0
32 1 26.7176 1.7566 49.0502 0
1570 1 27.3173 3.04007 49.3404 0
548 1 29.525 1.91535 49.6854 0
549 1 28.7121 3.12703 49.6031 0
550 1 30.9415 1.99821 49.9311 0
552 1 33.7778 2.12355 49.9975 0
553 1 35.2564 2.17927 49.942 0
1516 1 38.074 2.37687 49.7403 0
1517 1 39.5303 2.42279 49.6658 0
1518 1 42.398 2.49182 49.3444 0
1519 1 43.8145 2.61951 49.099 0
1520 1 46.6221 2.71553 48.5662 0
566 1 10.0247 4.20396 49.9304 0
454 1 11.4886 4.3336 49.7954 0
25 1 13.7072 3.27123 49.844 0
34 1 14.2984 4.56803 49.9355 0
36 1 16.5473 3.51645 49.7089 0
35 1 15.7253 4.6613 49.8642 0
37 1 17.9576 3.62519 49.566 0
38 1 20.7965 3.82324 49.3927 0
39 1 22.2375 3.96835 49.3993 0
40 1 25.0912 4.12685 49.3975 0
41 1 26.5136 4.25356 49.4143 0
568 1 29.3029 4.37359 49.8221 0
569 1 30.7166 4.50276 49.9562 0
573 1 35.8273 3.48436 49.8698 0
572 1 35.0674 4.69267 49.8929 0
574 1 37.2729 3.56934 49.7576 0
1525 1 40.1765 3.68141 49.5292 0
1527 1 41.6149 3.7238 49.3084 0
1528 1 44.4363 3.87166 48.7209 0
1529 1 45.8493 3.92226 48.4792 0
586 1 9.20874 5.39639 49.9387 0
42 1 12.0556 5.67472 49.8503 0
43 1 13.5021 5.77054 49.9501 0
44 1 16.3258 5.9829 49.8356 0
45 1 18.553 4.91952 49.6119 0
46 1 17.7708 6.08775 49.7452 0
47 1 19.9816 4.9766 49.6038 0
49 1 22.8343 5.25731 49.5774 0
50 1 24.3226 5.32986 49.5925 0
484 1 27.1744 5.55555 49.6444 0
588 1 28.5973 5.62366 49.8355 0
591 1 35.6833 5.95588 49.7506 0
1534 1 37.1214 6.02858 49.5367 0
1524 1 37.9267 4.80314 49.5414 0
1535 1 39.971 6.16064 49.1406 0
1526 1 39.3178 4.86829 49.357 0
1536 1 41.3938 6.20341 48.9396 0
1537 1 42.1972 4.98649 49.0252 0
1538 1 43.607 5.06357 48.7466 0
601 1 9.83175 6.71114 49.8425 0
792 1 11.2704 6.85129 49.8855 0
52 1 15.5187 7.1723 49.8923 0
51 1 14.1331 7.05112 49.9369 0
53 1 18.3772 7.36933 49.7284 0
54 1 19.8476 7.51937 49.7393 0
48 1 20.6364 6.29925 49.6947 0
55 1 22.0591 6.42023 49.671 0
56 1 22.6642 7.69783 49.7445 0
57 1 24.9055 6.59484 49.7411 0
58 1 24.0794 7.80621 49.8712 0
485 1 26.353 6.71932 49.7816 0
604 1 29.2148 6.86402 49.9512 0
606 1 33.4424 7.13119 49.8503 0
607 1 34.9459 7.1712 49.6992 0
1545 1 37.7323 7.31393 49.3182 0
1546 1 39.1719 7.36373 49.1231 0
1547 1 42.0228 7.49615 48.6993 0
1539 1 44.2654 6.36517 48.4889 0
600 1 9.02769 7.93784 49.9657 0
616 1 9.65445 9.21923 49.9612 0
523 1 11.8856 8.16732 49.9266 0
617 1 11.0648 9.32829 49.9255 0
60 1 13.2973 8.24138 49.9466 0
61 1 16.1613 8.42928 49.8722 0
62 1 17.585 8.58861 49.7878 0
64 1 21.8944 8.92325 49.7698 0
63 1 20.4699 8.81878 49.7934 0
1574 1 24.7203 9.06602 49.9104 0
618 1 26.1441 9.18765 49.8807 0
495 1 26.941 7.99824 49.9188 0
620 1 28.3791 8.0562 49.9856 0
623 1 31.1889 8.29133 49.9858 0
624 1 32.6463 8.34516 49.809 0
1556 1 35.5159 8.50032 49.4138 0
1557 1 36.903 8.51051 49.2097 0
1558 1 39.8263 8.62896 48.9042 0
1559 1 41.2382 8.70678 48.666 0
1210 1 11.707 10.62 49.9387 0
67 1 13.9368 9.53395 49.8989 0
68 1 13.1483 10.7384 49.9939 0
69 1 15.3428 9.66048 49.8562 0
70 1 15.9517 10.9319 49.9247 0
72 1 18.1848 9.88351 49.8333 0
73 1 19.6564 9.97549 49.8637 0
74 1 22.4903 10.1746 49.9203 0
637 1 26.7794 10.5005 49.9201 0
638 1 28.1942 10.574 49.9031 0
639 1 31.0491 10.8144 49.8098 0
622 1 30.4092 9.53356 49.9099 0
640 1 32.5023 10.8431 49.6561 0
641 1 33.3022 9.63574 49.6798 0
643 1 34.7152 9.65811 49.4663 0
642 1 35.3636 10.9464 49.2505 0
645 1 37.5743 9.81554 49.027 0
647 1 39.0201 9.85502 48.8924 0
663 1 10.8702 11.8035 49.9998 0
71 1 17.3765 11.0648 49.9238 0
78 1 17.9717 12.3614 49.9875 0
79 1 20.2739 11.2824 49.9197 0
1576 1 19.461 12.5246 49.9835 0
81 1 21.7254 11.3788 49.9572 0
665 1 26.0185 11.6998 49.9409 0
666 1 28.8435 11.9021 49.7919 0
667 1 30.2979 11.9854 49.73 0
668 1 33.1429 12.1367 49.4098 0
669 1 34.5495 12.1544 49.3161 0
644 1 36.7637 10.9931 49.0539 0
670 1 37.3865 12.2489 48.7701 0
671 1 38.8268 12.2861 48.5393 0
646 1 39.6371 11.1044 48.6145 0
685 1 0.85881 13.5748 49.2889 0
686 1 2.09083 13.7365 49.8256 0
698 1 26.631 12.992 49.8911 0
699 1 28.0422 13.0927 49.7959 0
700 1 30.9434 13.2859 49.6005 0
701 1 32.3501 13.3776 49.3473 0
702 1 35.1951 13.4214 48.903 0
703 1 36.6117 13.4639 48.6903 0
728 1 26.483 15.49 49.9924 0
729 1 27.9097 15.5773 49.7484 0
730 1 28.714 14.392 49.6501 0
731 1 30.1626 14.4957 49.5938 0
732 1 32.9494 14.6263 48.9933 0
733 1 34.3888 14.6299 48.7418 0
762 1 28.5217 16.8945 49.627 0
763 1 30.786 15.7823 49.3873 0
764 1 29.9833 17.0314 49.4857 0
765 1 32.1813 15.8755 49.0001 0
766 1 32.7758 17.2079 48.5227 0
788 1 26.267 18.0097 49.9636 0
789 1 27.6957 18.1023 49.8106 0
790 1 30.5478 18.4008 49.2194 0
791 1 31.9688 18.5108 48.7054 0
808 1 28.3257 19.4261 49.7574 0
809 1 29.7178 19.5857 49.5288 0
1211 1 32.369 19.8835 48.4553 0
826 1 27.5023 20.7123 49.9928 0
828 1 30.3174 20.9391 49.5054 0
829 1 31.6501 21.0312 49.0407 0
846 1 29.5778 22.1373 49.8641 0
847 1 30.2039 23.4707 49.8517 0
849 1 32.2483 22.3693 49.0599 0
1427 1 33.5883 22.4937 48.6277 0
851 1 35.9162 23.3335 48.8737 0
848 1 31.593 23.5711 49.5795 0
871 1 32.3485 24.8398 49.7927 0
872 1 33.8407 24.7162 49.6972 0
850 1 34.4528 23.5516 49.0217 0
873 1 36.7685 24.2301 49.5245 0
874 1 38.1258 24.299 49.2803 0
875 1 40.9581 24.5214 48.5733 0
1488 1 38.952 25.3622 49.8123 0
893 1 40.2545 25.5535 49.3581 0
894 1 43.0266 25.8819 48.7163 0
1252 1 40.9914 26.7958 49.6657 0
910 1 42.3504 26.9951 49.2736 0
912 1 45.0426 27.2693 48.5245 0
1491 1 42.0751 29.4439 49.8586 0
911 1 42.8649 28.3079 49.3633 0
935 1 44.2375 28.425 48.9259 0
936 1 44.8465 29.7279 49.0519 0
959 1 42.681 30.7623 49.8119 0
960 1 44.0691 30.8749 49.4662 0
961 1 46.767 31.1927 48.9473 0
937 1 46.2158 29.8644 48.7548 0
962 1 48.1969 31.321 48.8102 0
963 1 49.0463 30.139 48.5157 0
964 1 50.4959 30.2068 48.485 0
978 1 31.5535 32.6269 49.8619 0
979 1 32.9745 32.8232 49.793 0
985 1 44.5767 32.2102 49.4596 0
986 1 45.9467 32.3208 49.2133 0
987 1 48.8144 32.6407 48.947 0
989 1 51.1147 31.5179 48.6639 0
988 1 50.2857 32.6868 48.8288 0
1006 1 30.6704 33.7618 49.923 0
1007 1 33.5261 34.144 49.6577 0
1009 1 34.9057 34.4186 49.6273 0
1008 1 35.768 33.3408 49.9819 0
1012 1 41.4774 34.3435 49.9756 0
1013 1 42.3527 33.1806 49.9434 0
1014 1 43.6893 33.3429 49.6083 0
1015 1 46.5836 33.655 49.2113 0
1016 1 47.9822 33.8004 49.1448 0
1017 1 50.8932 33.9813 49.0229 0
1033 1 31.2235 35.0372 49.7504 0
1035 1 32.6407 35.2381 49.5026 0
1036 1 35.4644 35.7205 49.3133 0
1037 1 36.8509 36.0068 49.3447 0
1038 1 37.7426 34.9672 49.8511 0
1039 1 39.1956 35.2781 49.9345 0
1040 1 42.0177 35.645 49.7696 0
1041 1 43.4601 35.7977 49.6675 0
1042 1 44.3033 34.6565 49.5483 0
1043 1 45.7196 34.749 49.4178 0
1045 1 48.6207 35.0509 49.2812 0
1046 1 50.058 35.1589 49.2939 0
1032 1 28.9697 36.0542 49.9041 0
1598 1 30.8535 37.4868 49.3051 0
1034 1 30.3468 36.1686 49.6882 0
246 1 32.1941 37.5934 48.8639 0
482 1 33.1061 36.4804 49.0712 0
248 1 34.5704 36.7286 48.8891 0
249 1 37.4206 37.2838 48.9274 0
509 1 38.8214 37.5906 49.0871 0
1067 1 39.7526 36.5544 49.5971 0
1068 1 41.186 36.8097 49.616 0
1069 1 43.9964 37.1157 49.6285 0
1070 1 45.4485 37.2948 49.5728 0
1044 1 46.3453 36.1015 49.489 0
1071 1 47.7916 36.2027 49.4222 0
1072 1 48.4087 37.5004 49.5555 0
1074 1 50.6942 36.4684 49.4487 0
1086 1 28.694 38.5136 49.724 0
831 1 30.056 38.6678 49.3324 0
262 1 39.3628 39.0152 48.8798 0
1088 1 41.7202 38.1406 49.541 0
1089 1 43.1391 38.3034 49.6429 0
1090 1 46.0653 38.5811 49.6376 0
1091 1 47.5364 38.6455 49.6751 0
1073 1 49.8613 37.6301 49.5509 0
1092 1 50.4741 38.9275 49.6318 0
1113 1 27.9485 39.738 49.855 0
269 1 30.5408 39.9425 48.9494 0
263 1 40.8609 39.3507 49.2458 0
273 1 41.5282 40.6944 49.4629 0
1115 1 43.809 39.5648 49.7956 0
1116 1 45.246 39.7395 49.7862 0
1117 1 48.1804 39.9402 49.7477 0
1118 1 49.6313 40.0742 49.7089 0
1599 1 27.7433 42.2906 49.8864 0
838 1 28.512 41.0728 49.6486 0
279 1 29.8525 41.1889 49.2683 0
282 1 39.6674 42.2537 48.641 0
283 1 40.898 41.9916 49.3052 0
1114 1 42.9939 40.7751 49.797 0
1137 1 43.6719 42.0722 49.9592 0
1139 1 45.9345 40.9979 49.9154 0
1140 1 47.3869 41.1218 49.9759 0
1141 1 50.2988 41.3379 49.9329 0
287 1 28.4341 43.6417 49.857 0
288 1 29.9567 43.7842 49.5594 0
280 1 30.5099 42.5085 49.0132 0
289 1 39.1454 43.5509 48.5602 0
290 1 41.5497 43.2861 49.74 0
291 1 1.66594 44.4295 49.9123 0
293 1 30.6064 45.1341 49.7215 0
295 1 33.0807 44.7014 48.7276 0
296 1 34.5169 45.1032 48.6831 0
298 1 39.5309 44.6272 49.3518 0
299 1 40.8007 44.53 49.9474 0
308 1 1.36624 46.9121 49.4857 0
300 1 1.96516 45.7559 49.7874 0
480 1 3.44753 45.8925 49.7863 0
489 1 6.30555 46.2252 49.8487 0
499 1 7.76488 46.4455 49.8978 0
294 1 32.0804 45.4878 49.4832 0
303 1 32.5585 46.8633 49.9581 0
304 1 34.9653 46.2636 49.4642 0
297 1 37.3363 45.6804 49.0273 0
305 1 36.4018 46.5801 49.6093 0
306 1 38.69 45.7655 49.5062 0
309 1 1.74995 48.2062 49.1902 0
310 1 3.19662 48.3673 49.1417 0
278 1 4.04553 47.2088 49.5406 0
255 1 5.48525 47.3572 49.5842 0
1227 1 8.352 47.7361 49.6759 0
1228 1 9.76329 47.8705 49.8164 0
317 1 34.0292 47.2138 49.9686 0
321 1 1.17425 49.3749 48.9223 0
322 1 3.80163 49.6711 48.9042 0
324 1 5.19096 49.8927 49.0434 0
481 1 6.0175 48.7037 49.3645 0
254 1 7.52164 48.8748 49.5081 0
1583 1 10.3095 49.2122 49.7415 0
1582 1 11.7451 49.3724 49.8261 0
334 1 1.50462 50.6791 48.7286 0
335 1 3.00844 50.9042 48.8026 0
336 1 5.74054 51.1779 49.0107 0
338 1 7.22027 51.3462 49.1489 0
337 1 8.03922 50.188 49.3854 0
340 1 10.0803 51.6917 49.4037 0
1600 1 9.47872 50.3798 49.4581 0
486 1 12.3368 50.7135 49.7162 0
342 1 13.7774 50.837 49.8172 0
524 1 1.59236 0.983957 51.0426 0
525 1 3.06856 1.08999 50.8837 0
526 1 5.92161 1.32364 50.577 0
9411 1 5.32686 0.0444846 50.7394 0
527 1 7.35441 1.48561 50.3501 0
528 1 8.16222 0.272726 50.4296 0
529 1 9.60402 0.423229 50.1967 0
534 1 33.1486 0.781112 50.0495 0
543 1 1.03668 2.16672 50.9076 0
544 1 3.68158 2.4109 50.6522 0
545 1 5.12015 2.51487 50.4872 0
546 1 7.9462 2.8358 50.215 0
547 1 9.37848 2.91409 50.0644 0
530 1 10.209 1.72169 50.0389 0
561 1 1.39563 3.44418 50.7211 0
560 1 0.816237 4.64421 50.6736 0
562 1 2.84457 3.59381 50.5842 0
564 1 5.70232 3.83237 50.29 0
565 1 7.14687 3.99389 50.1961 0
551 1 31.5855 3.29979 50.0103 0
571 1 33.6334 4.59922 50.0476 0
570 1 33.0159 3.32277 50.0281 0
580 1 1.18469 5.92915 50.6498 0
581 1 2.59948 6.14818 50.4786 0
563 1 3.45951 4.9294 50.4724 0
582 1 4.87034 5.03604 50.2391 0
584 1 7.76182 5.27028 50.0479 0
590 1 32.8552 5.82688 50.0417 0
589 1 31.3799 5.78419 50.0731 0
596 1 0.607078 7.16153 50.6877 0
597 1 3.24819 7.48709 50.3541 0
598 1 4.69031 7.57829 50.2388 0
583 1 5.48295 6.35787 50.1525 0
585 1 6.95207 6.46339 50.1044 0
599 1 7.55501 7.76234 50.0419 0
605 1 30.5956 6.94407 50.0364 0
612 1 1.06607 8.36288 50.5388 0
613 1 2.43279 8.7656 50.4588 0
614 1 5.3174 8.91438 50.2357 0
615 1 6.75847 9.00646 50.0886 0
621 1 28.9994 9.39244 50.011 0
632 1 3.01571 10.0488 50.4191 0
634 1 4.47439 10.1022 50.2834 0
635 1 7.38144 10.2954 50.0872 0
636 1 8.83283 10.4444 50.0218 0
1575 1 23.9312 10.2888 50.0357 0
631 1 1.06329 11.2986 51.1044 0
658 1 2.86888 12.5259 50.1623 0
633 1 2.2537 11.2823 50.5314 0
660 1 5.10354 11.4002 50.198 0
661 1 6.54193 11.4832 50.1548 0
662 1 9.45226 11.7054 50.0337 0
76 1 13.7586 12.0212 50.0814 0
77 1 15.1771 12.1441 50.0856 0
837 1 24.5982 11.6154 50.0692 0
659 1 4.331 12.6115 50.2028 0
687 1 4.89875 13.8483 50.2403 0
688 1 6.35546 13.9657 50.2706 0
689 1 7.18539 12.8167 50.1946 0
690 1 8.60793 12.8744 50.1261 0
1591 1 11.4705 13.1128 50.0885 0
458 1 12.9297 13.1933 50.0506 0
506 1 15.7639 13.4326 50.1912 0
494 1 17.1764 13.5717 50.152 0
1573 1 20.1026 13.8199 50.0851 0
1230 1 21.5328 13.9307 50.1154 0
1487 1 22.3342 12.7262 50.103 0
695 1 23.7792 12.7604 50.1376 0
719 1 2.69146 15.0075 50.1859 0
720 1 4.11434 15.0537 50.3484 0
1181 1 6.95746 15.2531 50.4481 0
1482 1 8.43978 15.3455 50.4852 0
1182 1 9.24501 14.1992 50.2926 0
519 1 10.6743 14.2804 50.2541 0
89 1 11.2735 15.5871 50.2499 0
476 1 13.5299 14.4881 50.088 0
502 1 14.9572 14.6338 50.1542 0
724 1 17.8293 14.8371 50.241 0
725 1 19.2663 14.9743 50.2648 0
726 1 22.1332 15.2339 50.2046 0
727 1 23.5731 15.3141 50.1795 0
696 1 24.3915 14.1413 50.115 0
697 1 25.834 14.1932 50.0044 0
718 1 0.428577 15.9981 50.5845 0
751 1 1.80154 16.1126 50.4696 0
1577 1 4.76265 16.3151 50.6109 0
1578 1 6.17776 16.4406 50.6242 0
92 1 9.07356 16.6633 50.5701 0
93 1 10.4782 16.7581 50.4709 0
461 1 12.7089 15.6855 50.1822 0
490 1 13.3377 16.9737 50.4007 0
491 1 14.7784 17.1037 50.4232 0
501 1 15.5975 15.9099 50.2582 0
756 1 17.0157 16.0344 50.2655 0
758 1 19.9057 16.2747 50.3477 0
759 1 21.3236 16.405 50.2738 0
760 1 24.1942 16.6095 50.1327 0
761 1 25.6755 16.7307 50.0897 0
1592 1 2.51058 17.3285 50.7695 0
463 1 1.96903 18.5541 51.134 0
100 1 3.93939 17.4668 50.8614 0
99 1 4.55464 18.7397 51.1447 0
102 1 6.85563 17.6757 50.8608 0
103 1 8.26469 17.8171 50.7741 0
104 1 11.1049 18.0157 50.7027 0
464 1 12.5216 18.1544 50.6356 0
781 1 15.3936 18.4045 50.445 0
782 1 16.8221 18.5598 50.311 0
757 1 17.6351 17.3221 50.3689 0
783 1 19.0467 17.448 50.4432 0
784 1 19.7169 18.7905 50.3679 0
786 1 21.9157 17.7105 50.2512 0
787 1 23.3634 17.8142 50.1757 0
113 1 2.23052 19.8285 51.5542 0
114 1 3.76991 19.8881 51.5225 0
101 1 6.03311 18.8672 51.0418 0
115 1 6.61071 20.1348 51.3281 0
117 1 8.84407 19.0956 50.8997 0
116 1 8.03061 20.2838 51.2026 0
118 1 10.3173 19.1908 50.8477 0
478 1 13.1696 19.4702 50.7805 0
488 1 14.5759 19.5529 50.6776 0
802 1 17.4677 19.847 50.3788 0
803 1 18.9338 19.9926 50.3565 0
804 1 21.7971 20.214 50.2256 0
785 1 21.1332 18.8725 50.2353 0
805 1 23.2273 20.3519 50.2295 0
806 1 24.0192 19.0964 50.1368 0
807 1 25.4498 19.262 50.045 0
133 1 8.67357 21.5551 51.2916 0
134 1 10.1078 21.6922 51.1467 0
135 1 10.8988 20.4954 50.9651 0
88 1 12.3457 20.6322 50.8965 0
819 1 15.1825 20.9286 50.6557 0
820 1 16.6249 21.0352 50.5086 0
821 1 19.5124 21.3287 50.3953 0
822 1 20.9476 21.3975 50.3423 0
823 1 23.8891 21.6741 50.3312 0
825 1 25.3206 21.8143 50.1861 0
824 1 26.1086 20.5911 50.0253 0
152 1 7.81675 22.7439 51.498 0
153 1 10.7428 23.0108 51.2191 0
154 1 12.1772 23.1331 51.0932 0
466 1 12.9534 21.9512 50.9143 0
507 1 14.3707 22.1024 50.7616 0
505 1 14.9772 23.4143 50.8145 0
840 1 17.2611 22.3569 50.5478 0
841 1 18.7214 22.492 50.4889 0
842 1 21.606 22.7038 50.4474 0
843 1 23.0238 22.841 50.3925 0
844 1 25.8865 23.121 50.2365 0
845 1 27.3403 23.2404 50.2186 0
827 1 28.1486 22.0532 50.0446 0
169 1 8.42379 24.0693 51.5612 0
170 1 9.91492 24.1636 51.429 0
171 1 12.7555 24.4497 51.0878 0
508 1 14.1904 24.6075 50.898 0
839 1 16.412 23.5235 50.7161 0
862 1 17.0591 24.8086 50.6974 0
863 1 18.477 24.9362 50.653 0
864 1 19.3471 23.7438 50.5914 0
865 1 20.7874 23.8973 50.5654 0
867 1 23.6328 24.1981 50.4162 0
868 1 25.0642 24.314 50.2771 0
869 1 27.9931 24.5464 50.2303 0
870 1 29.4214 24.6857 50.1299 0
183 1 10.5119 25.4643 51.3911 0
184 1 11.9727 25.6198 51.2693 0
882 1 14.8084 25.9189 50.9222 0
883 1 16.2266 25.9826 50.7884 0
884 1 19.1181 26.2186 50.6889 0
866 1 21.3934 25.2158 50.6164 0
885 1 20.5511 26.3993 50.655 0
886 1 22.8032 25.3762 50.4868 0
889 1 25.7078 25.641 50.3399 0
890 1 27.1282 25.7585 50.2529 0
891 1 30.0795 26.0104 50.215 0
892 1 31.614 26.1672 50.1454 0
1569 1 34.7393 25.5412 50.4014 0
1568 1 36.1459 25.1433 50.435 0
1490 1 36.9346 26.1718 50.9691 0
1484 1 38.2876 26.3392 50.6175 0
1584 1 10.2914 27.9883 51.4001 0
182 1 9.70173 26.6699 51.5153 0
194 1 11.7263 28.1151 51.2502 0
195 1 12.5965 26.96 51.1814 0
1273 1 13.9829 27.0754 51.011 0
901 1 16.8329 27.2749 50.756 0
902 1 18.2938 27.3986 50.7291 0
903 1 21.163 27.7162 50.697 0
887 1 23.4721 26.6655 50.4827 0
904 1 22.5867 27.8845 50.5409 0
888 1 24.9078 26.8351 50.4136 0
905 1 25.4981 28.1663 50.51 0
906 1 27.7779 27.0442 50.3902 0
908 1 29.2307 27.1986 50.3253 0
909 1 32.2477 27.5427 50.2706 0
1456 1 33.6638 27.8966 50.487 0
1454 1 34.6655 26.9377 50.8108 0
1455 1 36.0449 27.2962 51.152 0
1439 1 38.8819 27.6389 50.8004 0
1379 1 40.2019 27.8707 50.3147 0
1453 1 9.43913 29.1746 51.4525 0
1256 1 12.3398 29.4093 51.2192 0
1250 1 13.805 29.5431 51.0521 0
923 1 14.6208 28.3943 50.9623 0
925 1 16.0652 28.4845 50.8092 0
926 1 18.8898 28.7867 50.7242 0
928 1 20.3425 28.9133 50.6989 0
929 1 23.1594 29.1837 50.5625 0
930 1 24.6337 29.3158 50.5478 0
907 1 26.9159 28.2757 50.5286 0
931 1 27.5662 29.5719 50.5172 0
932 1 28.993 29.7058 50.4417 0
933 1 29.8273 28.4999 50.4112 0
934 1 31.2695 28.679 50.2838 0
1251 1 34.2038 29.2797 50.4946 0
1231 1 35.6471 29.5835 50.7272 0
1493 1 36.5824 28.5965 51.0718 0
1492 1 38.0308 28.7983 51.064 0
1459 1 40.6849 29.1941 50.339 0
1172 1 10.0868 30.4671 51.3973 0
1226 1 11.5509 30.6144 51.2616 0
1225 1 14.3246 30.8617 50.9304 0
924 1 16.6472 29.7943 50.8484 0
948 1 15.7996 30.9647 50.9428 0
927 1 18.053 29.9752 50.7594 0
949 1 18.6508 31.3035 50.7681 0
951 1 20.9211 30.2258 50.6961 0
952 1 22.3403 30.3602 50.609 0
953 1 25.2051 30.6507 50.4896 0
954 1 26.6983 30.7549 50.4696 0
955 1 29.5595 31.0515 50.3732 0
956 1 30.9949 31.2952 50.1241 0
957 1 31.8515 30.0938 50.1555 0
958 1 33.2718 30.3578 50.2525 0
1430 1 37.5609 31.2224 50.5941 0
1458 1 36.1471 30.9581 50.5642 0
1429 1 38.4942 30.1391 50.816 0
1428 1 39.8982 30.3359 50.5331 0
877 1 9.23723 31.6417 51.4539 0
1207 1 12.115 31.9324 51.1384 0
1206 1 13.5557 32.0508 50.9234 0
970 1 16.3976 32.3343 50.9494 0
971 1 17.8577 32.4787 50.7645 0
950 1 20.1066 31.445 50.7618 0
972 1 20.7159 32.7234 50.7071 0
974 1 22.9503 31.6754 50.5396 0
973 1 22.1429 32.8618 50.6732 0
975 1 24.4009 31.8151 50.4034 0
976 1 27.2725 32.1064 50.4457 0
977 1 28.7042 32.2199 50.3344 0
980 1 33.8316 31.7064 50.0409 0
981 1 35.2647 31.9844 50.2313 0
982 1 38.0963 32.5522 50.3551 0
1426 1 40.3693 31.6557 50.2923 0
983 1 39.536 32.7911 50.2895 0
984 1 41.8035 31.8656 50.1201 0
754 1 9.04119 34.125 51.4935 0
1208 1 9.80727 32.9392 51.3837 0
1595 1 11.8557 34.381 51.2511 0
1205 1 11.2579 33.0634 51.2539 0
854 1 14.1323 33.3489 50.9185 0
997 1 15.5511 33.5303 50.9439 0
998 1 18.4598 33.7887 50.7456 0
999 1 19.8987 33.948 50.7366 0
1000 1 22.7621 34.1677 50.5923 0
1002 1 24.1729 34.3012 50.4638 0
1001 1 24.9933 33.1056 50.395 0
1003 1 26.4052 33.2583 50.3881 0
1005 1 29.259 33.55 50.1412 0
1010 1 37.2093 33.6361 50.0915 0
1011 1 40.0214 34.1313 50.1298 0
723 1 9.55857 35.4408 51.3976 0
1198 1 11.0111 35.553 51.3004 0
603 1 13.2784 34.5139 51.06 0
810 1 13.8702 35.8145 51.0002 0
1196 1 15.3448 35.9791 50.9146 0
1025 1 16.1686 34.7949 50.8218 0
1026 1 17.6114 34.9277 50.7276 0
1027 1 20.4921 35.2428 50.764 0
1028 1 21.9044 35.3697 50.6402 0
1029 1 24.7555 35.6167 50.5153 0
1030 1 26.1651 35.7396 50.4354 0
1004 1 27.0076 34.5734 50.3073 0
1031 1 28.4556 34.7521 50.1481 0
1597 1 8.75549 36.6055 51.3833 0
1173 1 11.5901 36.8445 51.221 0
801 1 13.0362 37.0101 51.0968 0
1056 1 15.922 37.2944 50.8601 0
1057 1 17.365 37.4207 50.693 0
1058 1 18.2105 36.2746 50.7269 0
1059 1 19.6743 36.4058 50.7542 0
1061 1 22.4997 36.6808 50.6923 0
1062 1 23.9647 36.8195 50.6035 0
1063 1 26.754 37.0494 50.3963 0
1064 1 28.1296 37.2027 50.0012 0
251 1 4.33046 38.6184 51.5029 0
252 1 7.16724 38.8899 51.334 0
1066 1 8.57552 39.058 51.2262 0
1183 1 9.37246 37.9017 51.2575 0
861 1 10.7728 38.0303 51.1739 0
1150 1 13.6681 38.3148 51.0625 0
1149 1 15.0955 38.4509 50.9422 0
1080 1 18.0049 38.7244 50.7321 0
1081 1 19.4031 38.8874 50.7207 0
1060 1 20.2464 37.7153 50.7245 0
1082 1 21.7031 37.9064 50.7133 0
1084 1 24.4871 38.1305 50.5502 0
1085 1 25.9246 38.2889 50.4324 0
264 1 0.671784 39.3176 51.1645 0
265 1 1.98267 39.5173 51.2271 0
266 1 4.88647 39.8695 51.2119 0
1589 1 6.29526 40.0379 51.1118 0
800 1 9.1066 40.3721 51.0293 0
1101 1 10.5313 40.5259 50.8946 0
855 1 11.3977 39.3377 51.0567 0
1103 1 12.8178 39.4892 51.0509 0
1104 1 15.6789 39.7667 50.8653 0
1106 1 17.1561 39.9326 50.7699 0
1107 1 19.9518 40.1994 50.7218 0
1108 1 21.4045 40.3668 50.6004 0
1083 1 22.2697 39.1946 50.6501 0
1109 1 23.7135 39.3531 50.5474 0
1110 1 24.3196 40.6673 50.41 0
1111 1 26.5424 39.6556 50.2236 0
275 1 2.57317 40.7982 50.9925 0
274 1 1.96573 41.9823 50.6594 0
276 1 4.03282 40.9841 50.8759 0
498 1 4.59679 42.2776 50.4974 0
1596 1 6.85387 41.3283 50.8072 0
587 1 8.28798 41.4919 50.8161 0
1128 1 11.147 41.8193 50.7095 0
1129 1 12.6058 41.934 50.7248 0
1102 1 13.4376 40.7875 50.9236 0
1105 1 14.8747 40.9655 50.9267 0
1130 1 15.4552 42.2673 50.7985 0
1132 1 17.7278 41.2464 50.6965 0
1133 1 19.1328 41.4037 50.6911 0
1134 1 22.0364 41.6813 50.4836 0
1135 1 23.4621 41.8008 50.369 0
1112 1 25.7229 40.8598 50.2529 0
1136 1 26.316 42.1664 50.1956 0
1138 1 45.1073 42.1189 50.0965 0
1142 1 51.6982 41.4625 50.0245 0
473 1 2.24632 43.229 50.2364 0
286 1 3.75895 43.4173 50.2663 0
619 1 6.02816 42.4843 50.5315 0
1594 1 6.61165 43.79 50.3133 0
531 1 8.85332 42.7727 50.5873 0
1151 1 10.3371 42.951 50.6093 0
1152 1 13.1571 43.2707 50.5521 0
1153 1 14.6051 43.3912 50.6246 0
1131 1 16.893 42.4334 50.6895 0
1154 1 17.4659 43.7191 50.4733 0
1156 1 19.7833 42.7157 50.59 0
1157 1 21.2111 42.8651 50.4619 0
1158 1 24.0649 43.1723 50.2638 0
1159 1 25.5052 43.3445 50.2346 0
1160 1 42.9375 43.3624 50.1144 0
1161 1 45.7447 43.394 50.337 0
1163 1 47.173 43.518 50.3434 0
1162 1 48.0457 42.3665 50.1712 0
1165 1 50.0649 43.7949 50.2495 0
1164 1 49.4654 42.4891 50.0868 0
487 1 4.2858 44.7527 50.0657 0
1593 1 5.71712 44.9418 50.1 0
1174 1 8.61573 45.2726 50.0703 0
1489 1 8.00604 43.9446 50.3164 0
1176 1 10.8755 44.2297 50.4228 0
1175 1 10.0091 45.385 50.1955 0
1177 1 12.279 44.395 50.442 0
1178 1 15.1908 44.717 50.3509 0
1179 1 16.6215 44.8955 50.266 0
457 1 19.5522 45.1813 50.4671 0
1155 1 18.8997 43.874 50.4715 0
396 1 21.8058 44.1667 50.3497 0
229 1 20.9528 45.3328 50.2988 0
512 1 23.2278 44.3097 50.2561 0
468 1 26.1164 44.6286 50.1403 0
292 1 27.5885 44.7994 50.029 0
1185 1 43.5886 44.5505 50.4802 0
1186 1 44.9646 44.6224 50.5434 0
1187 1 47.8291 44.8336 50.4579 0
1188 1 49.2481 44.9946 50.427 0
1189 1 51.5136 43.9167 50.2157 0
1199 1 10.593 46.7323 50.042 0
1200 1 12.0119 46.9062 50.1679 0
1201 1 12.8902 45.72 50.3191 0
1202 1 14.3048 45.8903 50.2589 0
1203 1 17.2237 46.1905 50.2519 0
497 1 18.6684 46.34 50.3169 0
477 1 21.5344 46.6285 50.1947 0
475 1 22.9937 46.8423 50.2149 0
459 1 23.8061 45.6231 50.2783 0
456 1 25.2279 45.822 50.1894 0
301 1 28.2207 46.1578 50.0588 0
302 1 29.6677 46.2656 50.0481 0
307 1 39.1717 46.8606 50.2763 0
1588 1 40.5501 46.8427 50.6271 0
1587 1 41.3624 45.7006 50.507 0
1212 1 42.7632 45.6931 50.7432 0
1214 1 45.6031 45.9425 50.7973 0
1215 1 47.0486 45.9891 50.6236 0
1216 1 49.878 46.3074 50.404 0
1217 1 51.2866 46.4372 50.4156 0
193 1 14.0826 48.3852 50.0917 0
1229 1 12.6356 48.2049 50.0288 0
1585 1 14.9397 47.2037 50.2088 0
465 1 16.3985 47.3658 50.1871 0
311 1 19.2479 47.6513 50.2382 0
312 1 20.6511 47.7684 50.156 0
455 1 23.5585 48.1537 50.1468 0
426 1 24.9655 48.3043 50.0946 0
467 1 25.8618 47.1401 50.1549 0
313 1 27.3015 47.2999 50.105 0
315 1 30.2051 47.62 50.2918 0
316 1 31.6219 47.9158 50.3077 0
318 1 34.5243 48.5188 50.5104 0
319 1 36.8898 47.7921 50.2471 0
320 1 38.3099 47.9206 50.5556 0
1236 1 41.0864 48.1728 51.0098 0
1213 1 43.3567 47.0461 50.9873 0
1237 1 42.5103 48.1995 51.1418 0
1238 1 44.7853 47.1205 50.9578 0
1239 1 45.3617 48.4396 51.0313 0
1240 1 46.8052 48.5408 50.9637 0
1241 1 47.5991 47.3929 50.7002 0
1242 1 49.0994 47.5238 50.5358 0
284 1 14.6964 49.6864 50.0211 0
460 1 16.966 48.6807 50.085 0
277 1 16.1084 49.8515 50.0389 0
326 1 18.4099 48.8374 50.1134 0
328 1 21.2645 49.0879 50.0791 0
329 1 22.6683 49.2684 50.1066 0
330 1 25.4774 49.6296 50.0915 0
314 1 27.8109 48.6342 50.1944 0
245 1 26.9243 49.7932 50.138 0
331 1 29.2973 48.8137 50.3553 0
510 1 29.8198 50.1351 50.5155 0
472 1 32.1245 49.237 50.6303 0
1257 1 33.5805 49.5523 50.7457 0
492 1 35.9483 48.81 50.5911 0
1258 1 36.4958 50.0871 50.9579 0
1259 1 38.8445 49.1733 50.9629 0
1260 1 40.2557 49.3215 51.128 0
1261 1 43.1352 49.5174 51.2446 0
1262 1 44.5913 49.602 51.1609 0
1263 1 47.4631 49.8722 50.9847 0
1264 1 48.8598 49.9778 50.7366 0
1265 1 49.7065 48.8299 50.5491 0
1266 1 51.1227 48.9292 50.5908 0
343 1 16.6627 51.1479 50.0025 0
344 1 18.0887 51.3575 50.0629 0
325 1 18.9748 50.194 50.1032 0
345 1 20.9595 51.6374 50.0362 0
327 1 20.4253 50.323 50.0988 0