ITEM: TIMESTEP
40000000
ITEM: NUMBER OF ATOMS
96420
ITEM: BOX BOUNDS ff pp pp
0.0000000000000000e+00 6.2041497800000002e+02
0.0000000000000000e+00 4.1362756350000001e+02
0.0000000000000000e+00 1.0000000000000000e+02
ITEM: ATOMS id type x y z f_5
794 1 49.9401 17.7833 47.0695 272.102
479 1 49.1585 18.9529 46.9554 271.078
1522 1 50.8894 2.85656 48.5228 271.051
1531 1 50.0671 4.04823 48.342 270.182
1530 1 48.6383 3.97122 48.4298 271.496
1541 1 47.8662 5.14131 48.2686 269.304
1542 1 50.6887 5.30087 48.0381 271.904
1550 1 46.2767 7.58297 48.1108 270.145
1551 1 47.7142 7.61755 47.9669 269.493
1552 1 48.4704 6.44812 48.0306 271.261
1553 1 49.9419 6.50524 47.9201 271.181
1560 1 44.112 8.71237 48.5054 270.784
1561 1 45.4684 8.75116 48.1447 271.142
1563 1 48.3614 8.93987 47.8114 272.053
1562 1 49.7846 8.98153 47.7029 271.521
1554 1 50.5748 7.75972 47.8496 270.288
1565 1 43.2658 9.89981 48.4449 270.557
1566 1 46.1182 10.0089 47.912 269.476
1567 1 47.5358 10.1172 47.8114 269.238
649 1 50.3908 10.2972 47.484 270.509
673 1 41.7231 12.2788 48.3155 270.965
674 1 43.1193 12.3451 47.9709 272.822
675 1 43.8825 11.141 48.0843 270.081
677 1 45.2897 11.2037 47.8569 271.191
676 1 45.9176 12.4493 47.6471 271.534
678 1 48.1912 11.4303 47.6076 271.741
679 1 49.594 11.4536 47.4036 271.597
704 1 39.5054 13.3976 48.5492 271.053
705 1 40.9247 13.4994 48.2787 271.548
706 1 43.7367 13.6577 47.7609 271.905
707 1 45.162 13.6921 47.6033 268.702
709 1 47.976 13.8813 47.3702 273.753
708 1 47.3677 12.5831 47.6033 271.157
710 1 49.4737 13.9432 47.2193 270.533
711 1 50.2694 12.7266 47.2721 271.535
712 1 51.7113 12.8321 47.2841 271.341
735 1 37.3394 14.5659 48.7365 269.083
737 1 38.7298 14.6251 48.3974 271.079
739 1 41.5637 14.7361 47.9293 270.378
740 1 42.9532 14.8233 47.7515 272.219
741 1 45.7523 14.9378 47.2803 271.608
742 1 47.1806 15.0726 47.2049 271.64
743 1 50.0533 15.256 47.0786 270.688
744 1 51.4888 15.301 47.0724 273.917
1460 1 34.2338 16.9112 48.4178 270.651
734 1 35.0709 15.7277 48.7077 269.026
736 1 36.5047 15.6852 48.4541 269.756
95 1 37.1509 16.8142 47.9045 272.077
96 1 38.5269 16.9697 47.756 269.607
738 1 39.3706 15.8196 47.9311 271.181
767 1 40.7388 15.9161 47.7967 268.962
97 1 41.3416 17.1843 47.4753 272.54
768 1 43.6038 16.0957 47.5176 271.751
769 1 44.9734 16.162 47.2715 271.116
770 1 47.8586 16.361 47.0024 271.188
771 1 49.3028 16.4996 47.0536 272.305
105 1 34.9019 17.875 47.6309 271.693
106 1 36.3433 17.895 47.54 273.067
107 1 39.0584 18.271 47.4455 270.844
108 1 40.5184 18.3545 47.3911 271.447
98 1 42.77 17.2678 47.405 270.489
109 1 43.3502 18.5596 47.222 270.355
110 1 44.8014 18.6417 47.0503 270.949
1572 1 45.5772 17.458 47.0298 271.152
1601 1 47.0388 17.5321 46.9685 270.928
793 1 51.3841 17.8954 47.06 271.858
120 1 33.6079 20.0992 47.7647 269.558
122 1 35.7899 20.0117 47.0263 271.047
121 1 34.5495 19.2186 47.2642 273.026
123 1 36.9048 19.1918 47.2296 271.445
124 1 38.2429 19.5235 47.362 272.421
125 1 41.0743 19.711 47.4177 273.468
126 1 42.511 19.7666 47.3009 270.697
127 1 45.3997 19.9589 47.0299 272.359
128 1 46.8805 20.0454 46.9999 270.088
112 1 47.7135 18.8426 46.8974 270.602
129 1 49.7312 20.2768 46.9925 274.267
493 1 51.1783 20.3654 47.0481 271.046
137 1 34.207 21.4623 47.7302 267.857
138 1 35.6304 21.3814 47.3959 270.004
139 1 38.8271 20.8344 47.6522 272.132
141 1 40.2604 20.8759 47.5495 271.524
142 1 43.1666 21.0641 47.3868 269.106
143 1 44.6176 21.1525 47.272 274.865
144 1 47.5105 21.3616 47.1316 272.212
145 1 48.9296 21.477 47.1688 271.392
156 1 36.5886 22.2232 47.9977 271.267
1579 1 38.0781 22.0231 48.0716 271.557
186 1 40.9848 22.1202 47.8245 271.888
158 1 42.3763 22.184 47.7254 271.579
470 1 43.0775 23.4408 47.9407 272.329
160 1 45.2687 22.3942 47.3478 271.345
161 1 46.7015 22.5306 47.2668 271.507
162 1 49.6378 22.7806 47.2211 271.459
163 1 51.028 22.8586 47.2929 270.401
876 1 42.3466 24.5469 48.5198 273.247
177 1 44.5111 23.5684 47.6975 270.154
469 1 45.1289 24.8579 47.8632 271.515
172 1 46.5294 25.0095 47.6806 270.168
173 1 47.3347 23.8081 47.4251 269.424
175 1 48.791 23.9256 47.3359 271.797
176 1 51.6576 24.1694 47.236 271.266
895 1 44.4279 25.9396 48.4659 270.359
1451 1 47.197 26.2438 47.8478 270.553
1580 1 48.5953 26.3737 47.7286 269.546
174 1 49.3982 25.236 47.4509 271.874
187 1 50.8773 25.378 47.3264 272.406
912 1 45.0237 27.2653 48.6077 271.662
913 1 46.4001 27.3873 48.2689 270.93
753 1 49.202 27.6986 47.8241 273.231
1581 1 51.4266 26.6873 47.5202 271.272
722 1 50.5937 27.8501 47.7463 272.428
938 1 47.0021 28.6934 48.3739 272.589
939 1 48.3833 28.8579 48.1483 271.088
940 1 51.2794 29.1096 47.9833 271.95
961 1 46.751 31.1612 48.6059 272.265
937 1 46.1967 29.8267 48.7073 272.008
962 1 48.1539 31.3235 48.4111 272.726
963 1 49.0151 30.1536 48.184 272.687
964 1 50.4048 30.2782 48.1414 272.06
989 1 51.026 31.6026 48.2542 271.826
259 1 33.9188 39.0175 48.2092 266.536
260 1 34.9074 37.985 48.5384 268.174
261 1 36.3389 38.2935 48.5053 266.89
1 1 34.3799 40.2342 47.5587 267.927
2 1 35.7196 40.5574 47.5178 265.649
271 1 36.7587 39.5875 48.072 268.607
272 1 38.1912 39.9583 48.168 267.258
3 1 32.1709 41.1709 48.1205 270.155
4 1 33.395 41.2395 47.521 265.951
6 1 36.0358 41.9129 47.3487 266.91
8 1 38.4514 41.3293 47.8975 269.318
282 1 39.4499 42.2411 48.4699 268.188
9 1 32.6769 43.4 48.2353 271.167
5 1 33.729 42.6184 47.5727 268.975
10 1 35.0446 42.9574 47.5066 269.409
7 1 37.3968 42.2223 47.3667 267.737
11 1 37.6696 43.6397 47.6824 269.407
289 1 38.9417 43.5831 48.3708 269.065
12 1 35.3481 44.2843 47.9812 269.673
13 1 36.7334 44.6236 48.0845 268.153
8130 1 20.339 -0.00471522 49.034 260.985
14 1 12.4109 0.669306 49.739 260.874
15 1 13.8206 0.797768 49.687 261.888
16 1 16.7068 1.01626 49.3236 259.557
17 1 18.1575 1.10954 49.1605 262.264
311 1 19.1895 47.6202 50.0081 262.335
18 1 20.9829 1.28482 49.2005 262.519
20 1 23.2137 0.216744 49.3229 260.77
19 1 22.3875 1.43344 49.2988 262.198
21 1 24.6462 0.250844 49.5013 264.157
23 1 27.3989 0.485427 49.9049 263.168
827 1 28.1843 21.977 49.8485 263.52
1509 1 41.7818 1.16224 49.8572 270.543
1510 1 44.5856 1.31082 49.4136 270.867
8590 1 43.9106 -0.0192374 49.5835 270.699
1511 1 46.0085 1.38939 49.1838 269.554
1512 1 46.8111 0.153669 49.2005 270.289
1513 1 48.2304 0.211964 48.9842 272.138
1514 1 48.8243 1.50743 48.8136 272.14
537 1 51.0714 0.422883 48.78 268.987
547 1 9.35541 2.90492 49.8784 260.22
460 1 16.8468 48.6588 50.0264 260.752
530 1 10.1357 1.69522 49.8111 260.4
483 1 11.5879 1.81584 49.7241 260.897
24 1 12.1987 3.14094 49.6928 260.037
26 1 14.4028 2.05992 49.6417 258.346
27 1 15.8115 2.18792 49.4483 261.694
28 1 18.7222 2.39587 49.1849 262.681
29 1 20.1587 2.51986 49.2346 261.117
30 1 23.0132 2.70868 49.4676 261.567
31 1 24.4281 2.79951 49.6166 262.532
22 1 25.2181 1.60022 49.6659 262.406
32 1 26.645 1.69734 49.8223 264.884
1570 1 27.2684 2.99008 49.9137 263.919
826 1 27.6051 20.6456 49.87 261.893
1518 1 42.3989 2.4372 49.7169 267.78
1519 1 43.7681 2.48388 49.4103 270.103
1520 1 46.6073 2.6546 48.9362 271.278
1521 1 48.0381 2.70261 48.7021 271.383
1515 1 50.2694 1.57104 48.7622 271.973
566 1 9.99854 4.24868 49.7945 260.634
454 1 11.3918 4.36299 49.7356 261.644
25 1 13.654 3.30158 49.6613 261.073
34 1 14.2847 4.58304 49.541 260.465
36 1 16.4734 3.48453 49.3356 260.383
35 1 15.6827 4.67508 49.3916 261.812
37 1 17.909 3.56384 49.2338 260.937
38 1 20.7841 3.81492 49.3945 261.564
39 1 22.2161 3.88679 49.4829 263.654
40 1 25.0575 4.09271 49.697 262.698
41 1 26.4794 4.20108 49.8792 264.364
1527 1 41.6128 3.65072 49.7007 268.848
1528 1 44.3875 3.72902 49.036 269.957
1529 1 45.7914 3.80652 48.8771 270.931
584 1 7.73276 5.26557 49.9228 262.192
586 1 9.16342 5.40399 49.769 261.683
42 1 12.0136 5.66131 49.6457 260.436
43 1 13.4618 5.75973 49.6017 260.542
44 1 16.3297 5.98937 49.352 260.784
45 1 18.5509 4.87221 49.3006 261.398
46 1 17.7622 6.10553 49.2954 261.098
47 1 20.0029 5.00357 49.3869 262.266
49 1 22.8023 5.2171 49.5708 262.567
50 1 24.2591 5.29581 49.6273 260.892
484 1 27.135 5.47988 49.8964 263.497
1535 1 40.0116 6.10375 49.7145 269.551
788 1 26.3273 18.0019 49.8518 263.84
1536 1 41.4335 6.13691 49.3649 270.705
1537 1 42.2701 4.94192 49.3392 269.238
1538 1 43.6303 4.95813 48.9916 269.534
1540 1 46.4228 5.06725 48.4833 270.975
599 1 7.53411 7.73506 49.8135 260.48
601 1 9.7998 6.71846 49.7078 263.005
792 1 11.238 6.81506 49.6979 260.247
51 1 14.0835 7.08048 49.5273 259.43
52 1 15.5158 7.21021 49.4401 261.678
53 1 18.3937 7.41044 49.445 260.123
54 1 19.8204 7.49996 49.4555 262.853
48 1 20.6398 6.30598 49.4442 262.176
55 1 22.0362 6.42352 49.5273 262.131
56 1 22.692 7.72359 49.6689 264.447
57 1 24.9156 6.63645 49.7388 261.21
58 1 24.1236 7.81438 49.833 261.349
485 1 26.3181 6.66638 49.8822 262.67
1545 1 37.8047 7.25307 49.9269 269.137
1546 1 39.2552 7.30137 49.6974 270.246
1547 1 42.0316 7.42288 49.0189 270.001
1548 1 43.4534 7.43626 48.7083 269.082
1539 1 44.2442 6.23747 48.6621 270.089
1549 1 45.6227 6.25861 48.3844 269.106
600 1 8.93963 7.87507 49.7363 260.86
616 1 9.57157 9.16245 49.7481 260.79
617 1 11.0027 9.31896 49.7637 260.992
523 1 11.8487 8.10234 49.7673 260.292
60 1 13.2569 8.2633 49.7105 261.553
61 1 16.1467 8.51049 49.524 261.185
62 1 17.6073 8.59729 49.5539 262.266
63 1 20.4791 8.78838 49.5526 259.388
64 1 21.9039 8.91469 49.6234 264.057
1574 1 24.7302 9.13161 49.9064 262.916
618 1 26.1704 9.22435 49.9082 263.143
1557 1 37.0247 8.45945 49.8199 269.284
1558 1 39.8067 8.56862 49.3463 270.293
1559 1 41.2086 8.66008 49.0483 270.846
1210 1 11.6716 10.619 49.7404 259.778
68 1 13.0815 10.6942 49.7538 261.249
67 1 13.9082 9.5416 49.7083 262.23
69 1 15.3131 9.67635 49.6725 260.631
70 1 15.9807 10.9465 49.6918 260.083
72 1 18.2714 9.89699 49.6522 261.475
73 1 19.7115 9.98963 49.6275 261.329
74 1 22.5236 10.2201 49.7509 262.134
1575 1 23.9747 10.3192 49.7575 260.653
277 1 16.0418 49.8235 49.9879 263.629
642 1 35.4046 10.8755 49.7256 270.22
342 1 13.7125 50.8467 49.8389 261.997
644 1 36.8199 10.9145 49.5456 270.83
645 1 37.6167 9.72924 49.5737 269.614
647 1 39.0048 9.7524 49.2663 270.188
648 1 41.8854 9.88275 48.7605 270.268
76 1 13.7217 11.9821 49.8971 260.498
77 1 15.2068 12.1472 49.8031 260.674
71 1 17.41 11.0452 49.6684 262.237
78 1 18.0037 12.3616 49.7495 260.767
79 1 20.2791 11.2876 49.7718 261.35
1576 1 19.4402 12.4409 49.7319 263.149
81 1 21.7213 11.4698 49.8102 261.78
665 1 25.9541 11.7166 49.8914 263.156
668 1 33.2056 12.0644 49.7163 270.211
669 1 34.6427 12.0741 49.619 268.28
670 1 37.4944 12.1559 49.201 269.096
671 1 38.8762 12.1866 48.8908 269.051
646 1 39.6381 10.9765 48.9099 270.072
672 1 41.0889 11.0725 48.6923 272.35
685 1 0.85881 13.5748 49.2889 0
686 1 2.09083 13.7365 49.8256 0
789 1 27.7956 18.1836 49.6255 263.821
506 1 15.8145 13.4383 49.956 260.42
494 1 17.2293 13.5517 49.8386 260.498
1573 1 20.0656 13.789 49.7689 260.968
486 1 12.3332 50.6785 49.8119 261.202
1487 1 22.3662 12.7174 49.809 261.404
695 1 23.7691 12.8105 49.7591 262.854
698 1 26.6656 13.0102 49.8973 264.334
699 1 28.102 13.1179 49.8689 262.263
700 1 30.989 13.206 49.674 266.083
701 1 32.4296 13.2712 49.5969 268.232
702 1 35.2839 13.3653 49.3968 267.54
703 1 36.7016 13.3697 49.2029 270.929
1600 1 9.48036 50.3576 49.4676 260.361
337 1 8.04872 50.1934 49.3531 259.797
728 1 26.5627 15.4917 49.7648 263.1
697 1 25.8786 14.1966 49.8207 264.117
729 1 27.9554 15.5841 49.6256 262.305
730 1 28.7461 14.3614 49.7234 262.696
731 1 30.1655 14.4321 49.618 264.417
732 1 33.0732 14.6213 49.429 268.58
733 1 34.4631 14.5511 49.2346 269.362
762 1 28.5406 16.9501 49.5173 262.367
763 1 30.8122 15.7763 49.4448 264.159
764 1 29.971 16.9816 49.4118 265.427
766 1 32.8584 17.1175 48.9051 267.874
765 1 32.2665 15.8567 49.2931 268.094
790 1 30.6013 18.3325 49.2919 267.02
791 1 32.0704 18.4541 48.9166 267.362
338 1 7.17427 51.3337 49.2129 259.98
809 1 29.8203 19.5452 49.5192 263.442
1211 1 32.4873 19.8052 48.5347 268.837
828 1 30.3596 20.8738 49.4274 265.49
829 1 31.7707 21.0307 49.0202 267.672
847 1 30.1903 23.4301 49.7307 267.194
849 1 32.3044 22.4161 48.9213 269.044
1427 1 33.6206 22.4895 48.4301 271.065
851 1 35.8887 23.2627 48.7622 270.27
852 1 38.8485 23.1487 48.5573 273.663
853 1 40.2584 23.2316 48.3776 273.279
848 1 31.6128 23.534 49.4 267.355
871 1 32.3017 24.809 49.5904 267.589
872 1 33.8026 24.6655 49.5683 269.361
850 1 34.4635 23.4895 48.8631 268.874
873 1 36.7299 24.1342 49.4938 270.531
874 1 38.1828 24.169 49.2756 270.209
875 1 40.9373 24.409 48.7412 270.87
892 1 31.6209 26.0646 49.9223 267.818
893 1 40.2668 25.4443 49.4332 270.965
894 1 43.0233 25.7929 48.7732 269.793
1252 1 40.9189 26.7241 49.646 270.79
910 1 42.2775 26.8852 49.3218 273.005
1491 1 42.0853 29.3469 49.763 271.832
911 1 42.8861 28.1629 49.4447 272.093
935 1 44.2497 28.3877 49.0332 273.004
936 1 44.8221 29.6942 49.0706 270.057
959 1 42.6053 30.6739 49.6198 272.362
960 1 43.9793 30.8659 49.2936 270.528
979 1 32.9431 32.7991 49.9042 269.07
981 1 35.2584 31.9987 49.9153 270.202
983 1 39.4359 32.7165 49.8471 270.121
846 1 29.5878 22.0886 49.7008 262.581
984 1 41.7058 31.7776 49.7078 271.194
985 1 44.5248 32.1515 49.1688 270.982
986 1 45.9074 32.3354 48.9502 271.373
987 1 48.6928 32.605 48.4815 273.552
988 1 50.1466 32.7356 48.4394 271.856
1007 1 33.4412 34.1304 49.7331 268.445
1008 1 35.755 33.3124 49.6415 267.576
1009 1 34.8129 34.3737 49.5567 269.243
1010 1 37.1065 33.5784 49.7101 272.509
1011 1 39.9958 34.0149 49.6853 269.981
1012 1 41.4274 34.2923 49.5265 272.389
1013 1 42.2957 33.1598 49.542 271.843
1014 1 43.7087 33.3544 49.2635 272.873
1015 1 46.4786 33.6755 48.8511 271.13
1016 1 47.8637 33.7651 48.7653 272.127
1017 1 50.7288 34.0892 48.4988 273.447
1033 1 31.1402 35.0074 49.757 267.25
1035 1 32.5199 35.2379 49.6077 265.651
1036 1 35.3538 35.6924 49.2387 267.402
1037 1 36.7442 35.9473 49.2187 267.516
1038 1 37.6651 34.886 49.4888 269.467
1039 1 39.1087 35.1506 49.5507 270.109
1040 1 41.9498 35.609 49.3537 271.609
1041 1 43.3727 35.8576 49.2278 272.675
1042 1 44.2126 34.6806 49.1269 272.027
1043 1 45.6294 34.8275 48.9633 273.878
1045 1 48.5256 35.0726 48.7998 271.363
1046 1 49.9526 35.2199 48.7082 273.118
1598 1 30.7956 37.5041 49.6058 267.249
482 1 33.0249 36.499 49.2304 265.323
248 1 34.408 36.7025 48.9651 268.697
249 1 37.2798 37.2933 48.974 269.326
1067 1 39.594 36.5241 49.3848 269.933
1068 1 41.0345 36.7986 49.3423 270.952
1069 1 43.9587 37.1944 49.2266 273.331
1070 1 45.3717 37.3121 49.035 274.509
1044 1 46.1914 36.1414 48.9443 270.305
1071 1 47.6477 36.2023 48.8841 272.266
1074 1 50.5172 36.5116 48.8019 273.367
831 1 29.9717 38.6429 49.8206 264.943
246 1 32.1186 37.6192 49.1098 267.066
258 1 32.5815 38.8201 48.6135 265.103
509 1 38.7149 37.6132 49.1105 271.162
262 1 39.2132 39.0189 48.7801 268.881
1088 1 41.5722 38.1412 49.2591 271.707
1089 1 43.0391 38.3336 49.2799 272.164
1090 1 45.9742 38.6025 49.0723 273.074
1072 1 48.2212 37.5499 48.9598 273.067
1091 1 47.3829 38.7178 49.0933 270.959
1073 1 49.651 37.6886 49.0321 271.511
1092 1 50.3348 38.9454 49.2548 273.094
269 1 30.5027 39.9123 49.332 266.503
270 1 31.7412 39.9563 48.6604 266.757
263 1 40.6852 39.3426 49.0742 271.841
1115 1 43.6324 39.658 49.3134 270.315
1116 1 45.1241 39.8148 49.2278 273.074
1117 1 48.0431 39.9803 49.3548 271.918
1118 1 49.5101 40.0994 49.4498 272.334
279 1 29.821 41.184 49.6414 264.758
273 1 41.3404 40.7112 49.2206 272.634
283 1 40.6904 42.0155 49.1087 270.936
1114 1 42.8189 40.8458 49.3767 274.298
1137 1 43.4977 42.1315 49.6431 273.435
1138 1 44.9398 42.2616 49.6759 270.222
1139 1 45.7379 41.1135 49.4513 273.776
1140 1 47.2084 41.1959 49.5306 273.9
1142 1 51.5813 41.5123 49.5564 271.631
1141 1 50.1218 41.3991 49.5776 272.241
288 1 29.7563 43.777 49.7204 264.762
280 1 30.4165 42.5337 49.3019 266.109
281 1 31.5666 42.4838 48.5453 268.744
290 1 41.3918 43.2939 49.5695 270.451
1160 1 42.7726 43.363 49.8476 271.968
336 1 5.74632 51.1857 48.9909 259.96
1162 1 47.8611 42.4713 49.7144 272.34
696 1 24.4231 14.0808 49.7569 263.432
1164 1 49.3166 42.5721 49.7776 271.906
291 1 1.66594 44.4295 49.9123 0
335 1 3.00844 50.9042 48.8026 0
334 1 1.50462 50.6791 48.7286 0
293 1 30.391 45.1148 49.782 267.803
296 1 34.2894 45.1452 48.6342 270.076
295 1 32.924 44.7191 48.7952 269.144
298 1 39.3848 44.6406 49.1314 269.812
299 1 40.6695 44.5136 49.6999 269.441
1165 1 49.9105 43.8262 50.0654 271.485
1189 1 51.3842 43.991 49.9912 273.833
308 1 1.36624 46.9121 49.4857 0
300 1 1.96516 45.7559 49.7874 0
480 1 3.44753 45.8925 49.7863 0
489 1 6.32561 46.299 49.7502 262.216
499 1 7.73846 46.4132 49.8537 259.592
1199 1 10.5863 46.7336 49.9408 260.548
666 1 28.9179 11.9053 49.8906 265.004
759 1 21.3529 16.3945 49.9616 260.285
837 1 24.5764 11.6124 49.8158 259.754
638 1 28.2374 10.6093 49.8965 264.274
294 1 31.8679 45.4656 49.5972 270.056
304 1 34.7393 46.3341 49.3545 268.896
305 1 36.174 46.5723 49.4697 270.077
297 1 37.134 45.6379 48.9445 268.873
306 1 38.4913 45.7564 49.3517 270.339
727 1 23.6172 15.2856 49.8756 261.713
309 1 1.74995 48.2062 49.1902 0
310 1 3.19662 48.3673 49.1417 0
278 1 4.04553 47.2088 49.5406 0
255 1 5.45152 47.431 49.4896 261.253
1227 1 8.30219 47.7206 49.6626 259.1
1228 1 9.72551 47.9247 49.8016 259.85
193 1 14.0002 48.3717 49.8966 262.725
1229 1 12.5901 48.1798 49.9144 258.667
1230 1 21.5356 13.8969 49.7476 261.161
284 1 14.5831 49.6797 49.9033 262.219
317 1 33.8476 47.2102 49.9899 269.092
1582 1 11.735 49.3632 49.8137 260.902
321 1 1.17425 49.3749 48.9223 0
322 1 3.80163 49.6711 48.9042 0
481 1 6.05875 48.7756 49.3225 259.551
324 1 5.19096 49.8927 49.0434 0
254 1 7.4823 48.8859 49.4589 260.737
1583 1 10.2945 49.2298 49.7122 260.054
980 1 33.8269 31.6655 49.976 268.081
1525 1 40.1965 3.63942 50.0309 268.684
495 1 26.9534 7.98629 49.854 262.874
637 1 26.7774 10.5284 49.9079 264.878
588 1 28.5566 5.58002 49.9819 265.413
724 1 17.7863 14.8726 49.8403 261.971
620 1 28.3843 8.07744 49.842 263.25
621 1 29.022 9.3629 49.8547 265.751
761 1 25.7244 16.6929 49.8028 264.453
726 1 22.1357 15.1974 49.8603 264.091
639 1 31.1243 10.7074 49.8554 266.703
663 1 10.8623 11.7835 49.9049 260.272
808 1 28.381 19.4808 49.6537 262.783
760 1 24.2937 16.5855 49.8928 260.831
758 1 19.9419 16.2518 49.9157 261.974
643 1 34.7434 9.65829 49.934 266.841
667 1 30.3174 11.9538 49.8299 266.357
604 1 29.1761 6.90629 49.9514 264.828
1163 1 47.0775 43.6812 49.9305 270.31
1426 1 40.3287 31.6145 49.9279 269.449
1488 1 38.8978 25.2933 49.8509 272.103
725 1 19.2793 15.0071 49.759 260.987
978 1 31.5109 32.5939 50.0401 267.192
640 1 32.5531 10.7902 49.8598 268.625
1161 1 45.5966 43.5224 49.9812 272.376
635 1 7.3221 10.2629 50.0348 260.485
636 1 8.76022 10.3765 49.9221 258.544
615 1 6.73364 8.93341 49.9716 261.295
622 1 30.4814 9.42429 49.8892 266.589
585 1 6.88286 6.43975 49.9288 260.079
623 1 31.2609 8.23932 49.9781 268.337
756 1 16.9811 16.0568 50.0174 262.262
1006 1 30.6279 33.6998 49.9584 264.245
982 1 38.0273 32.4791 49.9355 272.899
1034 1 30.2802 36.1894 49.8714 265.718
529 1 9.5247 0.376678 49.8895 259.631
326 1 18.3245 48.8012 50.0681 261.455
524 1 1.59236 0.983957 51.0426 0
525 1 3.06856 1.08999 50.8837 0
526 1 5.89065 1.33206 50.3766 261.688
9411 1 5.33805 0.0154408 50.5931 258.148
527 1 7.34176 1.4469 50.1778 261.399
528 1 8.09964 0.236397 50.0755 259.548
533 1 31.7818 0.720928 50.3478 268.427
534 1 33.1751 0.766727 50.5263 269.773
535 1 36.071 0.894707 50.564 270.217
536 1 37.5159 0.980411 50.4808 268.809
1202 1 14.2483 45.9029 50.1437 261.374
250 1 2.91099 38.4992 51.6612 0
543 1 1.03668 2.16672 50.9076 0
544 1 3.68158 2.4109 50.6522 0
545 1 5.12015 2.51487 50.4872 0
1201 1 12.8672 45.7174 50.2128 261.814
550 1 30.9821 1.95057 50.1889 266.98
552 1 33.854 2.06023 50.4893 267.134
553 1 35.2652 2.11609 50.4805 268.392
1516 1 38.1524 2.22284 50.3695 270.537
1517 1 39.5527 2.32659 50.1536 270.939
561 1 1.39563 3.44418 50.7211 0
560 1 0.816237 4.64421 50.6736 0
562 1 2.84457 3.59381 50.5842 0
564 1 5.72193 3.84952 50.2785 260.067
1175 1 10.0378 45.4454 50.0657 260.35
568 1 29.3875 4.33895 50.0267 265.424
569 1 30.7911 4.43403 50.1796 268.57
551 1 31.6408 3.25778 50.2631 267.185
571 1 33.6921 4.55692 50.3322 267.732
570 1 33.0366 3.27835 50.4294 269.253
573 1 35.9458 3.39115 50.4113 266.455
572 1 35.1152 4.6308 50.3529 268.098
574 1 37.3641 3.4478 50.3366 267.719
471 1 7.4099 36.5011 51.6923 260.94
580 1 1.18469 5.92915 50.6498 0
581 1 2.59948 6.14818 50.4786 0
563 1 3.45951 4.9294 50.4724 0
582 1 4.87034 5.03604 50.2391 0
662 1 9.41003 11.6618 49.9807 260.535
589 1 31.4543 5.71492 50.1859 265.885
590 1 32.8823 5.80093 50.3081 266.187
591 1 35.7321 5.89136 50.2173 268.239
1534 1 37.1704 5.97172 50.2312 267.384
1524 1 37.9521 4.77577 50.226 268.341
596 1 0.607078 7.16153 50.6877 0
597 1 3.24819 7.48709 50.3541 0
598 1 4.69031 7.57829 50.2388 0
583 1 5.49024 6.36238 50.1833 259.572
1275 1 31.7478 51.5547 51.4037 266.267
546 1 7.97593 2.7572 50.0447 260.746
605 1 30.6485 6.9648 50.0192 267.752
606 1 33.5013 7.07174 50.2841 270.067
607 1 34.9508 7.10522 50.2252 267.939
612 1 1.06607 8.36288 50.5388 0
613 1 2.43279 8.7656 50.4588 0
614 1 5.30207 8.88553 50.1599 262.34
1585 1 14.8258 47.2044 50.0098 259.46
242 1 5.17786 37.4731 51.8022 0
319 1 36.7286 47.755 50.1071 268.877
208 1 4.99334 31.2907 52.1023 0
307 1 39.0138 46.861 50.0141 271.54
624 1 32.6937 8.29158 50.1075 268.586
1556 1 35.5642 8.41628 50.0578 269.965
632 1 3.01571 10.0488 50.4191 0
634 1 4.47439 10.1022 50.2834 0
207 1 3.56738 31.1643 52.2277 0
199 1 2.90874 29.9115 52.5682 0
232 1 3.19767 36.186 52.3257 0
241 1 4.58135 36.255 52.0837 0
1593 1 5.74143 44.9689 50.0921 259.513
206 1 0.885759 30.9124 52.6837 0
641 1 33.3216 9.56585 50.0172 267.662
631 1 1.06329 11.2986 51.1044 0
658 1 2.86888 12.5259 50.1623 0
633 1 2.2537 11.2823 50.5314 0
660 1 5.10354 11.4002 50.198 0
661 1 6.56794 11.4779 50.1395 259.147
240 1 2.32112 37.3018 52.2074 0
1453 1 9.50723 29.1431 51.6407 262.035
239 1 0.987566 37.2182 52.5623 0
234 1 6.81079 35.1818 51.8188 258.902
233 1 5.35882 35.0646 52.0355 0
659 1 4.331 12.6115 50.2028 0
687 1 4.89875 13.8483 50.2403 0
689 1 7.1929 12.7632 50.1572 259.373
688 1 6.36098 13.9338 50.2365 261.857
690 1 8.66053 12.8233 50.1276 259.113
1591 1 11.4883 13.0835 50.0838 260.779
719 1 2.69146 15.0075 50.1859 0
720 1 4.11434 15.0537 50.3484 0
1181 1 6.97196 15.2204 50.4078 262.104
1182 1 9.23632 14.165 50.2917 260.573
1482 1 8.40728 15.3289 50.4212 259.359
519 1 10.6382 14.2217 50.2783 261.162
89 1 11.2969 15.5708 50.3089 262.287
476 1 13.5766 14.47 50.1415 259.929
461 1 12.7589 15.6604 50.2249 260.473
502 1 14.9894 14.6581 50.0601 259.402
202 1 8.02442 29.032 51.7077 260.895
231 1 2.63596 34.9268 52.6486 0
267 1 7.83367 31.4841 51.7141 259.78
718 1 0.428577 15.9981 50.5845 0
751 1 1.80154 16.1126 50.4696 0
1577 1 4.76265 16.3151 50.6109 0
1578 1 6.14812 16.3854 50.6593 258.662
92 1 9.03766 16.6311 50.4941 260.432
93 1 10.494 16.7453 50.4687 258.153
490 1 13.3727 16.964 50.33 258.432
501 1 15.5646 15.9209 50.1047 260.089
491 1 14.765 17.1105 50.2538 261.926
1200 1 12.0365 46.9098 50.0502 261.323
201 1 5.18999 28.7629 52.1937 0
218 1 7.03542 32.7036 51.8486 262.594
200 1 3.73467 28.6599 52.4836 0
197 1 1.17295 28.3351 53.0705 0
1592 1 2.51058 17.3285 50.7695 0
463 1 1.96903 18.5541 51.134 0
100 1 3.93939 17.4668 50.8614 0
99 1 4.55464 18.7397 51.1447 0
102 1 6.81945 17.6393 50.8338 262.322
103 1 8.25444 17.7863 50.7297 261.262
104 1 11.1053 18.0232 50.5693 259.874
464 1 12.5647 18.1016 50.5521 261.021
781 1 15.3892 18.375 50.4913 261.295
782 1 16.8437 18.4916 50.3909 260.402
757 1 17.6555 17.3124 50.1502 259.583
783 1 19.1135 17.409 50.1215 261.755
784 1 19.7352 18.7401 50.2657 260.497
786 1 22.0491 17.6769 50.0613 264.998
787 1 23.4879 17.7747 50.0674 263.506
198 1 1.4523 29.6392 52.8474 0
217 1 5.62647 32.5976 52.0567 259.211
113 1 2.23052 19.8285 51.5542 0
114 1 3.76991 19.8881 51.5225 0
101 1 6.01197 18.8479 51.0763 261.599
115 1 6.61386 20.1632 51.2207 261.363
117 1 8.87245 19.068 50.8289 258.993
116 1 8.05421 20.2648 51.015 259.703
118 1 10.288 19.1781 50.7673 260.389
478 1 13.1899 19.3857 50.7876 260.675
488 1 14.61 19.5739 50.7318 260.811
802 1 17.4678 19.7774 50.519 260.436
803 1 18.9167 19.9253 50.4794 259.831
785 1 21.2065 18.8141 50.1856 261.918
804 1 21.8228 20.1458 50.3437 260.713
805 1 23.2958 20.2197 50.3767 261.7
806 1 24.1219 19.0733 50.2128 261.262
807 1 25.5264 19.2186 50.051 262.267
133 1 8.61742 21.534 51.189 260.239
134 1 10.0879 21.6608 51.086 261.275
135 1 10.8908 20.4691 50.9581 261.048
88 1 12.3475 20.5807 51.0223 261.563
819 1 15.2422 20.8421 50.8192 261.07
820 1 16.6724 20.9582 50.7467 260.628
821 1 19.5744 21.2171 50.6321 260.893
822 1 21.013 21.3307 50.5097 261.67
823 1 23.9292 21.5839 50.412 260.275
825 1 25.3911 21.746 50.249 262.185
824 1 26.1757 20.4927 50.0665 263.835
1584 1 10.2973 27.9424 51.5983 257.845
153 1 10.6974 22.9667 51.2499 259.927
154 1 12.1192 23.1168 51.2681 259.881
466 1 12.9751 21.9274 51.0538 260.853
507 1 14.3993 22.0845 50.969 260.741
505 1 15.028 23.3861 51.046 260.599
839 1 16.4343 23.4344 50.9244 258.11
840 1 17.2902 22.2692 50.8466 261.052
841 1 18.7193 22.4156 50.7748 260.932
842 1 21.6168 22.6672 50.5886 261.448
843 1 23.1003 22.7842 50.4879 261.423
844 1 25.9987 23.0938 50.245 262.522
845 1 27.3868 23.228 50.069 262.761
192 1 7.39049 27.7208 51.8072 260.167
223 1 1.36249 34.8632 53.0535 0
171 1 12.7512 24.4273 51.304 259.274
508 1 14.2044 24.5136 51.2142 260.757
862 1 17.0505 24.7395 51.0573 261.903
863 1 18.4931 24.9204 50.9501 260.468
864 1 19.3298 23.7299 50.847 260.242
865 1 20.7781 23.8579 50.6932 261.5
867 1 23.6863 24.0965 50.5362 262.935
868 1 25.1301 24.1942 50.41 261.721
869 1 28.0547 24.5468 50.1143 263.758
191 1 5.98138 27.5668 52.0996 259.84
882 1 14.8222 25.8047 51.2947 260.468
883 1 16.2718 25.9585 51.1644 260.017
884 1 19.1213 26.2077 50.8634 260.476
885 1 20.5502 26.3017 50.7123 261.924
866 1 21.4067 25.119 50.6229 260.626
886 1 22.8273 25.2662 50.5544 259.997
887 1 23.4906 26.5817 50.5201 261.605
889 1 25.7347 25.5607 50.368 260.054
890 1 27.2072 25.7252 50.2548 262.367
891 1 30.1072 26 50.0282 264.902
1208 1 9.81431 32.9629 51.4503 259.717
1569 1 34.725 25.5529 50.1944 273.433
1568 1 36.1459 25.147 50.2572 271.154
1490 1 36.9123 26.1917 50.8261 272.73
1484 1 38.2509 26.31 50.5683 270.44
194 1 11.7457 28.0882 51.5293 261.133
1273 1 13.9864 26.9888 51.4025 260.412
195 1 12.5635 26.8732 51.4277 259.229
901 1 16.8721 27.2878 51.1297 261.256
902 1 18.3006 27.3948 50.971 261.628
903 1 21.1878 27.6097 50.67 260.917
904 1 22.6256 27.7359 50.5985 262.13
888 1 24.9611 26.7295 50.5141 260.971
905 1 25.5342 28.0414 50.5426 261.741
906 1 27.801 27.0441 50.3329 262.664
907 1 26.9569 28.2045 50.4442 262.255
908 1 29.3172 27.1571 50.1992 266.092
909 1 32.1776 27.4846 50.118 268.177
1456 1 33.6268 27.8475 50.4172 271.472
1454 1 34.6386 26.9026 50.722 272.377
1455 1 36.0144 27.2807 51.0135 271.532
1439 1 38.777 27.6211 50.5988 269.58
1379 1 40.1434 27.8109 50.1675 271.417
1256 1 12.3517 29.3976 51.4342 261.751
1250 1 13.7593 29.533 51.3478 260.896
923 1 14.5705 28.3229 51.3687 260.266
925 1 16.0201 28.4441 51.1852 260.231
926 1 18.9222 28.6859 50.8622 261.288
928 1 20.3419 28.7913 50.7259 259.559
929 1 23.2466 29.0248 50.6377 262.691
930 1 24.6772 29.2391 50.6331 263.108
931 1 27.5263 29.5316 50.4394 262.755
932 1 28.9567 29.6773 50.2642 262.299
933 1 29.8412 28.5213 50.2051 262.783
934 1 31.2851 28.6863 50.1066 265.997
1251 1 34.1687 29.2553 50.3664 270.478
1231 1 35.5613 29.591 50.5943 269.988
1493 1 36.5054 28.5707 50.9613 270.537
1492 1 37.9159 28.7633 50.7741 271.519
754 1 9.03453 34.1538 51.5397 259.818
1226 1 11.5213 30.5853 51.3489 258.962
1225 1 14.3552 30.8661 51.2464 260.48
924 1 16.6398 29.8012 51.04 262.409
948 1 15.81 30.9953 51.0548 260.623
927 1 18.0687 29.8737 50.9064 261.863
949 1 18.6758 31.1802 50.8859 261.027
951 1 20.9441 30.1269 50.7003 261.315
952 1 22.3951 30.2253 50.7471 260.633
953 1 25.2575 30.536 50.7638 259.12
954 1 26.6953 30.7079 50.6646 263.61
955 1 29.5276 31.0233 50.1759 267.004
956 1 30.9621 31.2389 50.0637 264.823
957 1 31.8506 30.0686 50.0102 267.555
474 1 7.62917 34.024 51.7092 259.904
1458 1 36.0909 30.9019 50.3171 270.949
1430 1 37.5154 31.1688 50.3178 270.914
1429 1 38.3989 30.0721 50.5739 271.625
1428 1 39.8007 30.3139 50.2454 270.538
1207 1 12.1075 31.9186 51.2417 260.211
1206 1 13.5279 32.0175 51.136 260.467
970 1 16.4138 32.2715 50.9994 259.344
971 1 17.8485 32.3927 50.8835 261.505
950 1 20.0988 31.3075 50.7752 262.235
972 1 20.6794 32.6466 50.9182 260.083
974 1 22.9394 31.6007 50.8833 263.064
973 1 22.14 32.7545 50.9879 262.234
975 1 24.3813 31.745 50.8496 264.581
976 1 27.2509 32.0472 50.5417 262.221
977 1 28.6585 32.1968 50.3701 264.046
225 1 4.79473 33.785 52.1631 0
224 1 3.38096 33.7389 52.3159 0
216 1 2.75076 32.4712 52.1982 0
1205 1 11.2722 33.0639 51.2384 262.624
1595 1 11.8482 34.3993 51.1602 260.355
854 1 14.1576 33.3021 51.1053 261.219
997 1 15.585 33.4259 50.991 259.589
998 1 18.4312 33.6794 50.9225 260.474
999 1 19.8796 33.8577 50.9411 258.376
1000 1 22.7346 34.0859 51.0002 262.649
1002 1 24.1834 34.2672 50.9316 261.179
1001 1 25.0158 33.059 50.8095 262.048
1003 1 26.4294 33.2404 50.6221 263.159
1005 1 29.2137 33.5323 50.2258 263.902
1459 1 40.6642 29.1394 50.1085 272.868
723 1 9.61578 35.4438 51.4127 259.19
1198 1 10.9999 35.5495 51.2247 260.588
603 1 13.2936 34.5217 51.165 259.493
810 1 13.8819 35.7997 50.971 261.682
1196 1 15.3711 35.8981 50.8329 262.546
1025 1 16.2118 34.7351 50.9367 263.419
1026 1 17.6482 34.8761 50.9048 261.011
1027 1 20.4615 35.1818 50.965 262.529
1028 1 21.8798 35.313 50.9175 261.446
1029 1 24.7165 35.6083 50.9488 261.527
1030 1 26.1454 35.773 50.8007 261.503
1004 1 26.9745 34.5731 50.6765 265.24
1031 1 28.417 34.7166 50.4083 263.369
1597 1 8.80974 36.6166 51.4873 259.766
1173 1 11.6063 36.8256 51.0004 261.351
801 1 13.0302 36.9941 50.9277 261.992
1056 1 15.9304 37.2211 50.8131 261.016
1057 1 17.3583 37.3867 50.8303 260.873
1058 1 18.2251 36.1954 50.8349 261.808
1059 1 19.6427 36.3819 50.8883 262.351
1061 1 22.445 36.6578 50.931 261.926
1062 1 23.893 36.8286 50.9785 261.811