# USER_LATT cell with dimension 1 x 1 x 1 and a = 1
      4947  atoms
         1  atom types

 0.   110.00000000000000  xlo xhi
 0.   110.00000000000000  ylo yhi
 0.   100.00000000000000  zlo zhi

Atoms

1 1    15.87097840000000    13.27573300000000    50.00000000000000
2 1    42.16455080000000    65.47397620000000    50.00000000000000
3 1    31.33138660000000    63.27713779999999    50.00000000000000
4 1    40.94697200000000    66.15856170000001    50.00000000000000
5 1    68.83895120000000    43.46938710000000    50.00000000000000
6 1    67.57416539999998    42.87652600000000    50.00000000000000
7 1    78.21077729999999    69.04015350000000    50.00000000000000
8 1    82.91194920000000    67.89430240000000    50.00000000000000
9 1    73.80524450000000    81.61582950000000    50.00000000000000
10 1     3.96728280000000    63.88219080000000    50.00000000000000
11 1     2.67034460000000    63.16509250000000    50.00000000000000
12 1     2.64359360000000    61.78639609999999    50.00000000000000
13 1     5.86764760000000    81.76171109999999    50.00000000000000
14 1     8.38660340000000    76.35951229999999    50.00000000000000
15 1     7.25333120000000    75.71672060000000    50.00000000000000
16 1     2.27601480000000    78.21295170000000    50.00000000000000
17 1     3.34191510000000    80.62905889999999    50.00000000000000
18 1    15.50512130000000    69.36098480000000    50.00000000000000
19 1    16.70678520000000    70.07314300000000    50.00000000000000
20 1    16.69086840000000    71.46989439999999    50.00000000000000
21 1     9.58757210000000    75.70412450000001    50.00000000000000
22 1    15.47328860000000    72.15448760000000    50.00000000000000
23 1     4.33435870000000    86.37870789999999    50.00000000000000
24 1     4.26593830000000    61.24485780000000    50.00000000000000
25 1    13.15145210000000    63.88343060000000    50.00000000000000
26 1    13.26569940000000    65.27024080000000    50.00000000000000
27 1    14.46623610000000    63.13328550000000    50.00000000000000
28 1    15.56737430000000    63.89779280000000    50.00000000000000
29 1    31.35333830000000    61.89363480000000    50.00000000000000
30 1    76.50721739999999   108.84757240000000    50.00000000000000
31 1    75.29919430000000   108.35260009999999    50.00000000000000
32 1    43.36621480000000    66.18613429999999    50.00000000000000
33 1    37.39767080000000    60.00108720000000    50.00000000000000
34 1    36.35271840000000   109.74092870000000    50.00000000000000
35 1    49.00074769999999    99.03505710000000    50.00000000000000
36 1    50.08800890000000    99.68489080000001    50.00000000000000
37 1    45.45122529999999    95.54547119999998    50.00000000000000
38 1    46.66880420000000    94.86087800000000    50.00000000000000
39 1    26.59806440000000    63.23970409999999    50.00000000000000
40 1    25.46512610000000    59.88707359999999    50.00000000000000
41 1    26.58918960000000    61.87328340000000    50.00000000000000
42 1    25.52259640000000    61.21536260000000    50.00000000000000
43 1    31.26999670000000    66.04829410000001    50.00000000000000
44 1    31.25407980000000    67.44504550000001    50.00000000000000
45 1    40.69231420000000    88.50658420000001    50.00000000000000
46 1    39.74530789999999    65.44640350000000    50.00000000000000
47 1    40.85147480000000    74.53907019999998    50.00000000000000
48 1    43.35029980000000    67.58288580000000    50.00000000000000
49 1    28.23995970000000    99.41267400000000    50.00000000000000
50 1    17.68562510000000    90.33982090000001    50.00000000000000
51 1    81.61072539999999    62.72439960000000    50.00000000000000
52 1    82.52987669999999    61.80292129999999    50.00000000000000
53 1    62.60861589999999     5.58832980000000    50.00000000000000
54 1    77.95416259999999     2.20211960000000    50.00000000000000
55 1    59.79818350000000    48.07956309999999    50.00000000000000
56 1    59.07643510000000    51.69744490000000    50.00000000000000
57 1    58.96627039999999    50.22110370000000    50.00000000000000
58 1    59.88558579999999    49.54310610000000    50.00000000000000
59 1    67.81208039999999    45.66006090000000    50.00000000000000
60 1    68.95790859999998    44.86115659999999    50.00000000000000
61 1    58.45357520000000    33.02010350000000    50.00000000000000
62 1    63.10320660000000    32.75788880000000    50.00000000000000
63 1    63.00540160000000    31.29992300000000    50.00000000000000
64 1    64.12324520000000    30.57086370000000    50.00000000000000
65 1    62.03150939999999    33.47377020000000    50.00000000000000
66 1    60.77622990000000    32.90056620000000    50.00000000000000
67 1    59.70958330000000    33.60097890000000    50.00000000000000
68 1    68.12520600000001    35.11878590000000    50.00000000000000
69 1    68.24416350000000    36.51055150000000    50.00000000000000
70 1    67.09833530000000    37.30945590000000    50.00000000000000
71 1    51.14639280000000    47.61992270000000    50.00000000000000
72 1    53.52652360000000    47.07126620000000    50.00000000000000
73 1    52.18059540000000    46.59265900000000    50.00000000000000
74 1    54.33544160000000    44.91144560000000    50.00000000000000
75 1    54.61326220000000    46.00367740000000    50.00000000000000
76 1    80.24681860000000    67.17672729999998    50.00000000000000
77 1    79.59166719999999    64.54061890000000    50.00000000000000
78 1    72.46456150000000    81.22373199999998    50.00000000000000
79 1   107.81971739999999    69.12899779999999    50.00000000000000
80 1   108.79761510000000    68.26689910000000    50.00000000000000
81 1   103.58798980000000    91.58638769999999    50.00000000000000
82 1   103.95179760000001    92.92290500000000    50.00000000000000
83 1     8.39486980000000    77.77901460000000    50.00000000000000
84 1     8.29147240000000    80.49128730000000    50.00000000000000
85 1     3.93200060000000    78.03984070000000    50.00000000000000
86 1     6.10263730000000    76.32529450000000    50.00000000000000
87 1     3.71065930000000    73.57943730000000    50.00000000000000
88 1     5.00404070000000    74.17291260000000    50.00000000000000
89 1     4.97436960000000    75.74294279999999    50.00000000000000
90 1     4.02051450000000    76.23225400000000    50.00000000000000
91 1     1.77784970000000    78.90940860000001    50.00000000000000
92 1     2.07581280000000    80.10914610000000    50.00000000000000
93 1     4.79013970000000    82.52326969999999    50.00000000000000
94 1     3.54130390000000    81.97943119999999    50.00000000000000
95 1     4.90800340000000    83.84713760000000    50.00000000000000
96 1     2.40204570000000    82.87162780000000    50.00000000000000
97 1     3.83933360000000    84.64760590000000    50.00000000000000
98 1     2.78342320000000    84.37930299999998    50.00000000000000
99 1    17.82886890000000    77.76905829999998    50.00000000000000
100 1    10.71522720000000    76.35558319999998    50.00000000000000
101 1    11.91637140000000    74.26725770000000    50.00000000000000
102 1    13.11314490000000    73.58921819999999    50.00000000000000
103 1    13.03672500000000    76.32255560000000    50.00000000000000
104 1    11.93668380000000    75.68958280000000    50.00000000000000
105 1    12.98874660000000    81.93619540000000    50.00000000000000
106 1    11.80961130000000    84.01584630000001    50.00000000000000
107 1    11.81910990000000    82.59082029999999    50.00000000000000
108 1    10.63229750000000    81.91680920000000    50.00000000000000
109 1    17.04606630000000    38.85328679999999    50.00000000000000
110 1    16.35988430000000    41.17334370000000    50.00000000000000
111 1    17.37271690000000    40.21139909999999    50.00000000000000
112 1    15.70658210000000    38.45711899999999    50.00000000000000
113 1    19.39838410000000    38.28750990000000    50.00000000000000
114 1    18.05889890000000    37.89134220000000    50.00000000000000
115 1    18.71220210000000    40.60756689999999    50.00000000000000
116 1    19.72503470000000    39.64562230000000    50.00000000000000
117 1    24.19232560000000    61.95959479999999    50.00000000000000
118 1    25.19801330000000    68.07450100000000    50.00000000000000
119 1    25.18209650000000    69.47125250000001    50.00000000000000
120 1     5.09563160000000    63.18405530000000    50.00000000000000
121 1     5.11833050000000    61.85894780000000    50.00000000000000
122 1     6.33606440000000    63.91307840000000    50.00000000000000
123 1     7.46537540000000    63.29348759999999    50.00000000000000
124 1    16.75453380000000    65.88288880000000    50.00000000000000
125 1    14.36266520000000    65.83993540000000    50.00000000000000
126 1    15.55286890000000    65.17073060000000    50.00000000000000
127 1    16.73861700000000    67.27964020000000    50.00000000000000
128 1    15.52103710000000    67.96423340000000    50.00000000000000
129 1    14.39903070000000    67.29928590000000    50.00000000000000
130 1    32.57178120000000    61.22517009999999    50.00000000000000
131 1    32.62697220000000    59.96143720000000    50.00000000000000
132 1     0.99436940000000    67.78926850000001    50.00000000000000
133 1     0.00590330000000    68.59592440000000    50.00000000000000
134 1     1.74051870000000    65.39106750000001    50.00000000000000
135 1     0.59806400000000    66.23422239999999    50.00000000000000
136 1     1.52900050000000    63.95748520000000    50.00000000000000
137 1    16.19762990000000    14.63384440000000    50.00000000000000
138 1    15.18479630000000    15.59578800000000    50.00000000000000
139 1    15.51144790000000    16.95389940000000    50.00000000000000
140 1     4.95670380000000     1.27776460000000    50.00000000000000
141 1     8.82373810000000    25.07221600000000    50.00000000000000
142 1    13.45290190000000    23.91406440000000    50.00000000000000
143 1     3.93543840000000    24.77609830000000    50.00000000000000
144 1     5.31313040000000     2.56292580000000    50.00000000000000
145 1     6.45710330000000     2.94445680000000    50.00000000000000
146 1    48.29434590000000     9.22590830000000    50.00000000000000
147 1    47.47927480000000   109.08465579999998    50.00000000000000
148 1    46.23276520000000   109.84012600000000    50.00000000000000
149 1    74.15376279999998   109.23480230000000    50.00000000000000
150 1    65.82873540000000   109.47595219999998    50.00000000000000
151 1    68.13802339999998   108.13175199999999    50.00000000000000
152 1    69.47142030000001   109.95735940000000    50.00000000000000
153 1    68.30626680000000   109.39500430000000    50.00000000000000
154 1    67.48855589999999   105.54286200000000    50.00000000000000
155 1    69.20001980000001   107.30081180000001    50.00000000000000
156 1    68.98411560000000   105.95139320000000    50.00000000000000
157 1    64.28836819999999    87.49835969999998    50.00000000000000
158 1    65.54467010000000    87.87141420000000    50.00000000000000
159 1    54.74972540000000    95.58435820000000    50.00000000000000
160 1    54.72048190000000    97.04148859999999    50.00000000000000
161 1    55.95724880000000    97.71160130000000    50.00000000000000
162 1    68.12608339999998    88.76744079999999    50.00000000000000
163 1    66.21721650000001    85.56263740000000    50.00000000000000
164 1    67.23084259999999    84.66384130000000    50.00000000000000
165 1    68.47396089999998    85.02725980000000    50.00000000000000
166 1    68.80714420000000    86.45596319999999    50.00000000000000
167 1    66.54917910000000    86.96884919999999    50.00000000000000
168 1    67.80323790000000    87.33444220000000    50.00000000000000
169 1    42.19124990000000    60.07171630000000    50.00000000000000
170 1    45.78546149999999    66.21369940000000    50.00000000000000
171 1    44.58379750000000    65.50154120000001    50.00000000000000
172 1    47.00304030000000    65.52910620000000    50.00000000000000
173 1    36.24068830000000    59.31005480000000    50.00000000000000
174 1    33.93134700000000    59.25079350000000    50.00000000000000
175 1    35.01848600000000    59.93608480000000    50.00000000000000
176 1    58.15655519999999    52.36668400000000    50.00000000000000
177 1    56.82204440000000    51.87607959999999    50.00000000000000
178 1    55.89593900000000    52.61227040000000    50.00000000000000
179 1    27.80071070000000   109.13616180000000    50.00000000000000
180 1    27.63842010000000   107.73975369999998    50.00000000000000
181 1    29.24871260000000   101.41258240000001    50.00000000000000
182 1    28.25743680000000   100.76661679999998    50.00000000000000
183 1    48.57321550000000   109.68087770000000    50.00000000000000
184 1    63.91183100000000   101.03350829999999    50.00000000000000
185 1    60.58549500000000    97.60896300000000    50.00000000000000
186 1    47.41430669999999   107.71792610000000    50.00000000000000
187 1    46.30992130000000   107.07880400000001    50.00000000000000
188 1    40.42633060000000   100.90206920000000    50.00000000000000
189 1    39.11121750000000   102.90319819999999    50.00000000000000
190 1    39.07217030000000   101.66696929999999    50.00000000000000
191 1    38.21218490000000   107.75790409999999    50.00000000000000
192 1    38.60440450000000   109.25776670000000    50.00000000000000
193 1    41.65382009999999   106.65990450000000    50.00000000000000
194 1    40.55220030000000   107.46412659999999    50.00000000000000
195 1    39.17887120000000   105.61342619999999    50.00000000000000
196 1    39.31417080000000   106.92695619999999    50.00000000000000
197 1    40.59682089999999    96.88709260000000    50.00000000000000
198 1    39.37924199999999    97.57167819999999    50.00000000000000
199 1    40.42111209999999    99.64897920000000    50.00000000000000
200 1    39.36382290000000    98.92451479999998    50.00000000000000
201 1    43.01606370000000    96.91465760000000    50.00000000000000
202 1    41.79848480000000    97.59925079999999    50.00000000000000
203 1    42.86756900000000    99.67304999999999    50.00000000000000
204 1    41.78337480000000    98.92520139999999    50.00000000000000
205 1    44.08044430000000   105.51699069999998    50.00000000000000
206 1    49.02124790000000    93.43556220000001    50.00000000000000
207 1    51.28503800000000    99.04329679999999    50.00000000000000
208 1    53.62294769999999    97.66073609999999    50.00000000000000
209 1    47.73250200000000    99.71502690000000    50.00000000000000
210 1    51.17869189999999   101.74928290000000    50.00000000000000
211 1    50.07441709999999   101.07038879999999    50.00000000000000
212 1    48.97547540000000    97.62443540000000    50.00000000000000
213 1    47.80807880000000    96.99591839999998    50.00000000000000
214 1    47.81386189999999    95.53948980000000    50.00000000000000
215 1    49.02045820000000    94.91458900000001    50.00000000000000
216 1    49.07649990000000    90.72256470000001    50.00000000000000
217 1    46.73246770000000    89.27387999999999    50.00000000000000
218 1    50.16523740000000    91.35334020000001    50.00000000000000
219 1    51.37228009999999    90.72702789999998    50.00000000000000
220 1    52.45870970000000    91.36737820000000    50.00000000000000
221 1    50.15993499999999    92.81606300000000    50.00000000000000
222 1    46.68471910000000    93.46412660000000    50.00000000000000
223 1    47.85339360000000    92.80703740000000    50.00000000000000
224 1    46.71655280000000    90.67062380000000    50.00000000000000
225 1    47.86158000000000    91.34922029999998    50.00000000000000
226 1    27.66469770000000    63.93869780000000    50.00000000000000
227 1    30.06833270000000    65.33613590000000    50.00000000000000
228 1    28.96224980000000    63.25671390000000    50.00000000000000
229 1    30.08402820000000    63.95872880000000    50.00000000000000
230 1    49.08116530000000    89.25746160000000    50.00000000000000
231 1    47.90407560000000    88.61513519999998    50.00000000000000
232 1    44.40871810000000    80.86579900000000    50.00000000000000
233 1    37.10324100000000    84.97335060000000    50.00000000000000
234 1    38.32081990000000    84.28876500000000    50.00000000000000
235 1    38.33673480000000    82.89201359999998    50.00000000000000
236 1    34.68399809999999    84.94578559999999    50.00000000000000
237 1    35.90157700000000    84.26119229999999    50.00000000000000
238 1    35.96524060000000    78.67418670000001    50.00000000000000
239 1    40.83555990000000    75.93582159999998    50.00000000000000
240 1    32.45574570000000    68.15720370000000    50.00000000000000
241 1    39.78173070000000    61.35910799999999    50.00000000000000
242 1    39.76063540000000    64.10144810000000    50.00000000000000
243 1    37.37644580000000    61.34155659999999    50.00000000000000
244 1    38.57365800000000    62.07013700000000    50.00000000000000
245 1    38.56093600000000    63.36406329999999    50.00000000000000
246 1    37.23056790000000    73.79934690000000    50.00000000000000
247 1    38.43223190000000    74.51150519999999    50.00000000000000
248 1    39.66572949999999    72.43016050000000    50.00000000000000
249 1    39.64981080000000    73.82691199999998    50.00000000000000
250 1    40.88330839999999    71.74556729999999    50.00000000000000
251 1    43.31846620000000    70.37638860000000    50.00000000000000
252 1    45.76954270000000    67.61045080000000    50.00000000000000
253 1    46.97120679999999    68.32260900000000    50.00000000000000
254 1    44.53604890000000    69.69179540000000    50.00000000000000
255 1    44.55196380000000    68.29504400000000    50.00000000000000
256 1    30.65847780000000   100.69000250000001    50.00000000000000
257 1    20.12078480000000    88.97063460000000    50.00000000000000
258 1    22.54002960000000    88.99819960000001    50.00000000000000
259 1    21.33836560000000    88.28604129999998    50.00000000000000
260 1    68.75146490000000    14.03623580000000    50.00000000000000
261 1    68.87042240000000    15.42800330000000    50.00000000000000
262 1    55.60861970000000    28.98723420000000    50.00000000000000
263 1    56.08063509999999    31.68469810000000    50.00000000000000
264 1    72.35164640000001    27.74786950000000    50.00000000000000
265 1    71.20581820000000    28.54677390000000    50.00000000000000
266 1    57.94048699999999    27.52182010000000    50.00000000000000
267 1    81.89131159999998    63.98466879999999    50.00000000000000
268 1    80.93198400000000    64.94164280000000    50.00000000000000
269 1    81.23124700000000    66.18833160000000    50.00000000000000
270 1    82.59872439999999    66.60922239999999    50.00000000000000
271 1    88.32485200000001    55.93513880000000    50.00000000000000
272 1    53.81349180000000     8.65213110000000    50.00000000000000
273 1    48.89233779999999    11.87698660000000    50.00000000000000
274 1    49.79398350000000    11.08867450000000    50.00000000000000
275 1    49.45297630000000     9.57296470000000    50.00000000000000
276 1    61.50436790000000     6.27082400000000    50.00000000000000
277 1    63.79318239999999     6.19404550000000    50.00000000000000
278 1    74.46117400000000     7.43073420000000    50.00000000000000
279 1    74.52166749999999     4.69488910000000    50.00000000000000
280 1    76.66568759999998     2.98637780000000    50.00000000000000
281 1    89.50758360000000    43.80570600000000    50.00000000000000
282 1    77.76576240000000    48.90141680000000    50.00000000000000
283 1    73.61643219999999    28.34073450000000    50.00000000000000
284 1    61.33391950000000    64.91953280000000    50.00000000000000
285 1    70.22750090000000    66.71065519999999    50.00000000000000
286 1    71.83814240000000    68.43680580000000    50.00000000000000
287 1    71.52915960000000    67.16912080000000    50.00000000000000
288 1    69.95655820000000    65.52467349999999    50.00000000000000
289 1    74.95084379999999    55.49449919999999    50.00000000000000
290 1    68.72833249999999    57.57107930000000    50.00000000000000
291 1    70.05847170000000    56.74850080000000    50.00000000000000
292 1    66.04043580000000    51.13013460000000    50.00000000000000
293 1    67.34375000000000    51.75212480000000    50.00000000000000
294 1    35.57083510000000    27.93268600000000    50.00000000000000
295 1    34.91753400000000    25.21646310000000    50.00000000000000
296 1    44.93536000000000    25.65634540000000    50.00000000000000
297 1    45.24742890000000    27.11480520000000    50.00000000000000
298 1    61.26121520000000    50.08427050000000    50.00000000000000
299 1    65.50696569999999    60.11009220000000    50.00000000000000
300 1    65.71830749999999    61.51523589999999    50.00000000000000
301 1    66.90403759999998    61.99877179999999    50.00000000000000
302 1    66.67383580000001    59.30041510000000    50.00000000000000
303 1    64.40863799999998    59.63328940000000    50.00000000000000
304 1    62.12833409999999    59.92187499999999    50.00000000000000
305 1    63.23363880000000    60.41254040000000    50.00000000000000
306 1    70.22268680000001    45.45402150000000    50.00000000000000
307 1    63.05922319999999    46.02446750000000    50.00000000000000
308 1    60.71184160000000    47.41091540000000    50.00000000000000
309 1    65.51390840000001    47.18168639999999    50.00000000000000
310 1    65.94754039999999    49.86198040000000    50.00000000000000
311 1    66.54729460000000    45.06719590000000    50.00000000000000
312 1    66.42833709999999    43.67542650000000    50.00000000000000
313 1    64.13668060000001    45.27323530000000    50.00000000000000
314 1    65.40146640000000    45.86610040000000    50.00000000000000
315 1    66.86042019999999    34.52592090000000    50.00000000000000
316 1    64.36299900000000    33.31777960000000    50.00000000000000
317 1    64.80667880000000    38.90726099999999    50.00000000000000
318 1    65.83354950000000    36.71659089999999    50.00000000000000
319 1    64.47853090000000    34.74542240000000    50.00000000000000
320 1    65.71459199999998    35.32482530000000    50.00000000000000
321 1    64.68772130000001    37.51549530000000    50.00000000000000
322 1    49.81982420000000    47.18033220000000    50.00000000000000
323 1    56.96086500000000    45.61412810000000    50.00000000000000
324 1    55.90456780000000    46.48021319999999    50.00000000000000
325 1    58.28543860000000    46.11272810000000    50.00000000000000
326 1    58.42525869999999    47.55183790000000    50.00000000000000
327 1    56.73798369999999    44.18435290000000    50.00000000000000
328 1    55.41488650000000    43.72710420000000    50.00000000000000
329 1    57.73088840000000    37.75571830000000    50.00000000000000
330 1    57.63414769999999    39.28882220000000    50.00000000000000
331 1    57.78978350000000    43.35694120000000    50.00000000000000
332 1    57.74099729999999    42.09865570000000    50.00000000000000
333 1    62.40520100000000    39.09764480000000    50.00000000000000
334 1    63.70013810000000    39.67877580000000    50.00000000000000
335 1    90.65341189999998    43.00680160000000    50.00000000000000
336 1   109.38289640000001    25.27949530000000    50.00000000000000
337 1   108.00141909999999    24.57305910000000    50.00000000000000
338 1   107.95407100000000    23.24778750000000    50.00000000000000
339 1    95.98193360000000    20.12040710000000    50.00000000000000
340 1    93.21445470000000    16.15114400000000    50.00000000000000
341 1    96.65728759999999    13.81701380000000    50.00000000000000
342 1    94.36028289999999    15.35224150000000    50.00000000000000
343 1    94.24661260000001    14.02233890000000    50.00000000000000
344 1    95.30849460000000    13.20732880000000    50.00000000000000
345 1    75.84445959999998   104.73635870000000    50.00000000000000
346 1    76.10951999999999   106.12631990000000    50.00000000000000
347 1    75.06805420000001   106.99729159999998    50.00000000000000
348 1    74.49794770000000   104.32038879999999    50.00000000000000
349 1    89.85830700000000    96.39365390000000    50.00000000000000
350 1    88.84840399999999    97.35867309999999    50.00000000000000
351 1   107.09548949999999   101.27682500000000    50.00000000000000
352 1   107.49916080000000   102.57621000000000    50.00000000000000
353 1   101.54064180000000   108.32720949999998    50.00000000000000
354 1   101.29163360000000   107.05260469999999    50.00000000000000
355 1    99.60310370000001   105.36031340000000    50.00000000000000
356 1    99.84481819999999   106.60775759999999    50.00000000000000
357 1   100.96724699999999    85.77844239999999    50.00000000000000
358 1    77.38965610000000   106.56668860000001    50.00000000000000
359 1    77.64430240000000   107.96068579999999    50.00000000000000
360 1    84.58341220000000    69.64350890000000    50.00000000000000
361 1    84.25263219999998    68.28639989999999    50.00000000000000
362 1    83.57350159999999    70.60852819999999    50.00000000000000
363 1    71.45465849999999    82.18875119999998    50.00000000000000
364 1    71.78543860000001    83.54586789999999    50.00000000000000
365 1    69.14956669999998    82.71639250000000    50.00000000000000
366 1    70.15753939999999    81.80940249999999    50.00000000000000
367 1    69.48648070000000    84.13388830000000    50.00000000000000
368 1    70.77553560000000    84.51088720000000    50.00000000000000
369 1    69.81765749999998    80.40662390000000    50.00000000000000
370 1    83.97069559999998    62.23704149999999    50.00000000000000
371 1   103.32514949999999    70.08318330000000    50.00000000000000
372 1   104.01180270000000    67.79849249999999    50.00000000000000
373 1   104.30059820000000    69.25043490000000    50.00000000000000
374 1   106.54851530000001    68.76274870000000    50.00000000000000
375 1   105.57916260000000    69.62183380000000    50.00000000000000
376 1   105.35506440000000    63.39327239999999    50.00000000000000
377 1   103.93722539999999    63.00636669999999    50.00000000000000
378 1   108.43164829999999    62.01581190000000    50.00000000000000
379 1   107.65273289999999    62.86718379999999    50.00000000000000
380 1   106.22153470000001    62.52721409999999    50.00000000000000
381 1   107.18048859999999    96.28627779999999    50.00000000000000
382 1   109.10305790000000    94.34194949999998    50.00000000000000
383 1   102.90502940000000    93.90740199999999    50.00000000000000
384 1   100.93211359999998    95.85115060000000    50.00000000000000
385 1   107.85485839999998    93.96568300000000    50.00000000000000
386 1   107.50196840000000    92.65721129999999    50.00000000000000
387 1   106.25025940000000    92.27536770000000    50.00000000000000
388 1   105.19004060000000    93.28813169999999    50.00000000000000
389 1   105.56278229999999    94.60442349999998    50.00000000000000
390 1   106.81020359999999    94.96279920000001    50.00000000000000
391 1    62.56463630000000     4.19505740000000    50.00000000000000
392 1    92.38918310000000     8.03988930000000    50.00000000000000
393 1     0.88750580000000    57.69454960000000    50.00000000000000
394 1     2.92841240000000    65.89476780000000    50.00000000000000
395 1     3.96707280000000    65.20184329999998    50.00000000000000
396 1     4.72572190000000    70.16201779999999    50.00000000000000
397 1     3.59937340000000    72.18714139999999    50.00000000000000
398 1     4.69877670000000    71.42548370000000    50.00000000000000
399 1     7.27107530000000    74.26569370000000    50.00000000000000
400 1     7.19334790000000    71.53023529999999    50.00000000000000
401 1     5.99764020000000    73.58150480000000    50.00000000000000
402 1     6.04613780000000    72.21669770000000    50.00000000000000
403 1    10.76561360000000    73.61892699999999    50.00000000000000
404 1     9.58511640000000    74.29172520000000    50.00000000000000
405 1     8.39105990000000    73.61819459999998    50.00000000000000
406 1     8.40234190000000    72.24872589999998    50.00000000000000
407 1    10.74863150000000    72.22579960000000    50.00000000000000
408 1     9.60992530000000    71.55809790000001    50.00000000000000
409 1     6.29969030000000    69.56055449999999    50.00000000000000
410 1     7.20751910000000    70.19918060000001    50.00000000000000
411 1     4.50436590000000    79.76018529999999    50.00000000000000
412 1     4.46442990000000    78.49179080000000    50.00000000000000
413 1     5.84947160000000    80.52975470000000    50.00000000000000
414 1     7.02803800000000    79.74749000000000    50.00000000000000
415 1     7.01207970000000    78.47840880000000    50.00000000000000
416 1     6.12367110000000    77.85642240000000    50.00000000000000
417 1     1.28144060000000    82.50852209999999    50.00000000000000
418 1     0.92913380000000    81.20864870000000    50.00000000000000
419 1    17.89253240000000    72.18205259999999    50.00000000000000
420 1    16.61128810000000    78.45365150000001    50.00000000000000
421 1    15.40962510000000    77.74149330000000    50.00000000000000
422 1    15.45737270000000    73.55123900000000    50.00000000000000
423 1    14.26685330000000    74.22061920000000    50.00000000000000
424 1    15.42554090000000    76.34474179999999    50.00000000000000
425 1    14.27172950000000    75.66094209999999    50.00000000000000
426 1    14.17346100000000    82.59993749999998    50.00000000000000
427 1    10.72223480000000    77.77767179999999    50.00000000000000
428 1    10.64515210000000    80.51160429999999    50.00000000000000
429 1     9.46521860000000    78.45086670000001    50.00000000000000
430 1     9.45698550000000    79.81674200000000    50.00000000000000
431 1    17.70154000000000    88.94306960000000    50.00000000000000
432 1    18.91912080000000    88.25847630000000    50.00000000000000
433 1    18.93503760000000    86.86172500000001    50.00000000000000