ITEM: TIMESTEP
0
ITEM: NUMBER OF ATOMS
4947
ITEM: BOX BOUNDS pp pp pp
-2.4750847432410978e+00 1.1247508474323956e+02
-2.2394241755446918e+00 1.1223942417554530e+02
0.0000000000000000e+00 1.0000000000000000e+02
ITEM: ATOMS id type x y z f_5
4742 1 -1.91048 10.5354 48.2449 0
4613 1 13.9878 -1.60586 49.9541 0
4861 1 16.7349 -0.789803 49.7387 0
4242 1 16.3544 -2.19904 49.7889 0
4625 1 19.1946 -1.32724 49.6778 0
4614 1 14.2969 -0.207435 49.9955 0
4860 1 15.7126 0.210295 49.8108 0
4857 1 18.0908 -0.354578 49.7789 0
4858 1 16.0292 1.6082 49.7882 0
4856 1 18.4888 1.03522 49.7463 0
4859 1 17.4314 2.00187 49.8082 0
4217 1 19.8849 1.42757 49.6587 0
4633 1 15.02 2.61223 49.8574 0
4634 1 15.3615 4.02985 49.7577 0
4632 1 17.8019 3.4563 49.7106 0
4215 1 19.2109 3.83504 49.7301 0
4216 1 20.2687 2.8299 49.6428 0
4617 1 11.8734 5.619 49.958 0
4615 1 12.9018 4.60882 49.9585 0
4214 1 14.2871 5.00095 49.8375 0
4635 1 16.785 4.44414 49.7521 0
3415 1 19.4923 5.25524 49.8079 0
1279 1 -2.12758 5.85449 49.4609 0
2297 1 -2.35826 7.15309 48.8938 0
4624 1 12.1972 7.05459 49.8829 0
4213 1 14.629 6.40776 49.8768 0
4627 1 15.9965 6.81274 49.963 0
4631 1 17.0485 5.85973 49.9947 0
4630 1 18.4514 6.26069 49.9929 0
2296 1 -1.33694 8.0321 48.8677 0
3344 1 0.709631 7.47346 49.9107 0
2303 1 -0.209853 8.54214 49.3455 0
4622 1 11.1249 7.98836 49.9351 0
4623 1 13.5864 7.40978 49.9254 0
4621 1 13.902 8.76352 49.9694 0
2301 1 0.0806992 9.96279 49.4211 0
2302 1 1.42272 10.3734 49.7923 0
1283 1 10.3962 10.451 49.9746 0
4619 1 11.4337 9.41513 49.9301 0
4620 1 12.8217 9.80962 49.9315 0
494 1 -0.881646 10.9108 49.0346 0
2291 1 1.63371 11.7947 49.9632 0
1547 1 7.52352 -2.17713 51.0913 0
4612 1 7.84306 -0.758573 51.2086 0
4854 1 10.2157 -1.32241 50.6598 0
4855 1 11.563 -0.989256 50.3758 0
4853 1 12.592 -1.99097 50.1075 0
4611 1 6.82605 0.275274 51.3043 0
4851 1 9.24641 -0.333304 50.9311 0
4937 1 11.9582 0.393109 50.3165 0
4936 1 13.3061 0.83001 50.147 0
496 1 4.77821 2.29242 51.395 0
4846 1 7.14428 1.65609 51.1503 0
4847 1 8.48824 2.06974 50.8346 0
4852 1 9.4974 1.03951 50.7323 0
4939 1 10.8369 1.45012 50.4467 0
4938 1 13.6554 2.20387 50.0744 0
2308 1 -1.22 3.96183 50.6183 0
2309 1 -0.145007 3.20636 51.2278 0
2307 1 1.18467 3.74904 51.1275 0
2281 1 2.34353 2.89821 51.4815 0
497 1 3.7059 3.31759 51.2466 0
4848 1 6.1535 2.67412 51.16 0
4849 1 6.4222 4.02321 50.8162 0
4845 1 8.8055 3.44557 50.5937 0
4616 1 10.1721 3.82942 50.3527 0
4941 1 11.1773 2.85453 50.2813 0
4940 1 12.5745 3.23107 50.0578 0
2306 1 -0.954327 5.32281 50.0468 0
3349 1 1.42995 5.16124 50.6864 0
3348 1 2.86166 5.54963 50.6171 0
2299 1 3.98563 4.65378 50.8133 0
2298 1 5.36381 5.04874 50.7349 0
4850 1 7.78218 4.43488 50.5744 0
4618 1 10.5261 5.24895 50.1652 0
3345 1 0.392537 6.06008 50.19 0
3347 1 3.1573 6.95677 50.3111 0
3343 1 5.65785 6.41944 50.475 0
4210 1 7.0126 6.79554 50.3804 0
4609 1 8.07595 5.79761 50.3913 0
4610 1 9.46117 6.21524 50.2274 0
3346 1 2.07995 7.91556 50.0599 0
3340 1 4.55876 7.39554 50.3497 0
3341 1 4.84913 8.7796 50.2747 0
4212 1 7.32023 8.22857 50.1913 0
4211 1 8.70216 8.58774 50.1879 0
4209 1 9.76672 7.59162 50.0836 0
4626 1 16.2925 8.2276 50.0683 0
4629 1 18.7904 7.61537 50.1141 0
4628 1 17.6987 8.60908 50.0851 0
2369 1 20.1337 8.08117 50.099 0
2300 1 2.42643 9.33864 50.0811 0
2310 1 3.78469 9.7472 50.1964 0
3342 1 6.24133 9.17206 50.179 0
2304 1 9.01396 10.0018 50.1131 0
3414 1 15.2804 9.23314 50.0931 0
2370 1 18.0124 10.0418 50.0761 0
2367 1 19.4101 10.4485 50.1767 0
2368 1 20.4939 9.44864 50.2199 0
2312 1 5.49847 11.5424 50.247 0
2311 1 4.10706 11.1321 50.2455 0
2313 1 6.5472 10.5869 50.2221 0
2305 1 7.9488 10.9778 50.1876 0
1282 1 10.7639 11.823 50.0074 0
1250 1 13.1823 11.1925 50.0134 0
1 1 14.5257 11.5926 50.0622 0
1314 1 17.0029 11.054 50.0961 0
1313 1 15.5945 10.6643 50.1128 0
4179 1 19.729 11.8764 50.0573 0
2282 1 -1.34063 -1.95774 52.5338 0
3337 1 -0.929509 -0.665234 52.9275 0
1263 1 1.39977 -1.23035 52.3862 0
481 1 3.75561 -1.92243 51.9185 0
140 1 2.75933 -0.849968 52.1859 0
1316 1 5.15682 -1.53736 51.6199 0
3339 1 -2.01832 0.206871 52.5476 0
3334 1 0.397225 -0.221075 52.6731 0
144 1 3.10372 0.537042 51.9916 0
1315 1 5.49458 -0.142859 51.6088 0
145 1 4.46267 0.886503 51.7198 0
3338 1 -1.77956 1.50945 52.017 0
3336 1 -0.439247 1.94965 51.905 0
3335 1 0.674881 1.10969 52.3032 0
2280 1 2.07769 1.56471 52.0539 0
495 1 -1.03197 12.2738 49.5776 0
4733 1 -2.44137 12.9678 49.7219 0
2289 1 0.438574 12.7214 49.9819 0
1251 1 12.1253 12.2111 49.9897 0
3180 1 -1.13891 20.9699 49.8636 0
3179 1 0.217315 21.513 49.9941 0
3181 1 -2.17037 21.7733 49.3522 0
3176 1 0.448748 22.9447 49.717 0
2259 1 4.28217 22.9613 49.903 0
3178 1 -1.99899 23.2016 49.2556 0
3177 1 -0.674562 23.8075 49.3278 0
143 1 1.80902 23.453 49.7887 0
1150 1 4.58433 24.3497 49.7347 0
141 1 7.10749 23.8414 49.91 0
486 1 8.45827 24.249 49.9433 0
2286 1 13.6377 24.4176 49.9827 0
2287 1 16.0299 23.8623 49.983 0
3191 1 -1.71402 26.0174 48.7037 0
3190 1 -0.516549 25.3003 49.0603 0
3185 1 2.05571 24.9034 49.523 0
3189 1 0.936349 25.9033 49.3259 0
3184 1 3.48722 25.3625 49.5815 0
1149 1 6.01277 24.8221 49.8594 0
2120 1 6.32356 26.1842 49.8574 0
3208 1 8.78695 25.6245 49.9588 0
2284 1 15.0574 24.8383 49.9205 0
1266 1 15.3762 26.2014 49.8818 0
2171 1 17.8309 25.6373 49.8878 0
2294 1 3.37515 13.5508 50.2757 0
2292 1 3.03273 12.1628 50.1483 0
1285 1 5.85872 12.9214 50.2344 0
493 1 7.25108 13.3377 50.2101 0
1281 1 8.30019 12.352 50.1932 0
1280 1 9.66673 12.7889 50.1808 0
478 1 12.4473 13.6158 50.0794 0
137 1 14.8656 13.0342 50.0949 0
1257 1 16.2599 13.4315 50.0744 0
1258 1 17.3454 12.4702 50.0648 0
4180 1 18.6889 12.8545 50.0382 0
1273 1 -0.0612878 15.1466 50.6542 0
2290 1 0.857326 14.0707 50.3846 0
2293 1 2.30164 14.5 50.4377 0
1284 1 4.81744 13.9079 50.2558 0
479 1 7.57127 14.7171 50.2828 0
2266 1 8.94028 15.1582 50.1938 0
2267 1 10.0238 14.2018 50.2037 0
2268 1 11.3786 14.6217 50.1707 0
138 1 13.8751 14.0198 50.0897 0
3326 1 16.6208 14.8744 50.1278 0
3327 1 17.9936 15.2067 50.2185 0
4181 1 19.052 14.2081 50.1596 0
4183 1 20.4339 14.6842 50.16 0
1278 1 -1.55064 15.3259 50.4666 0
1277 1 -1.74457 16.8166 50.6245 0
1276 1 0.424153 16.5149 51.0044 0
1274 1 2.72566 15.8771 50.709 0
1254 1 4.09862 16.3252 50.5742 0
1255 1 5.1493 15.334 50.3666 0
1256 1 6.54211 15.7237 50.2534 0
2269 1 9.33096 16.564 50.029 0
4165 1 11.7412 16.0167 50.2283 0
4164 1 13.0562 16.4752 50.1881 0
139 1 14.1255 15.4356 50.1002 0
3325 1 15.5297 15.8076 50.1827 0
4588 1 18.337 16.6127 50.227 0
492 1 -0.565561 17.5227 50.9563 0
1275 1 1.77727 16.8693 50.9651 0
490 1 2.06394 18.3083 50.9053 0
1253 1 4.44677 17.7227 50.5712 0
2263 1 5.77612 18.1517 50.3021 0
2264 1 6.90087 17.1816 50.192 0
2262 1 8.25919 17.5882 50.0766 0
4163 1 10.6748 16.9982 50.1277 0
4162 1 10.9361 18.3919 50.143 0
4166 1 13.4008 17.8689 50.2141 0
3316 1 14.7799 18.2317 50.0976 0
3324 1 15.8447 17.2463 50.1747 0
4591 1 17.2331 17.6295 50.2055 0
4593 1 19.7103 17.0816 50.2777 0
1288 1 -1.38844 19.5811 50.1555 0
1287 1 -0.312676 18.8157 50.6476 0
1286 1 1.03833 19.2661 50.7115 0
491 1 3.40526 18.7196 50.6744 0
2265 1 6.08139 19.5458 50.2213 0
3320 1 7.47212 19.9841 50.2132 0
3319 1 8.53234 18.9907 50.1612 0
3318 1 9.89469 19.3776 50.1596 0
4167 1 12.3413 18.8399 50.148 0
3315 1 15.0907 19.6411 50.1076 0
4590 1 17.5098 19.0369 50.1009 0
4589 1 18.9354 19.4443 50.1793 0
4592 1 19.9827 18.4661 50.2126 0
1289 1 1.29484 20.6356 50.338 0
2257 1 2.63674 21.1376 50.3295 0
2255 1 3.69165 20.177 50.5404 0
2256 1 5.07163 20.574 50.3011 0
3323 1 7.77914 21.3801 50.1761 0
3321 1 10.2409 20.8123 50.1699 0
2261 1 11.6481 21.2246 50.0619 0
3317 1 12.6579 20.2285 50.0927 0
3314 1 14.0426 20.6512 50.0837 0
1268 1 16.4775 20.0638 50.099 0
1270 1 16.8348 21.4435 50.0594 0
488 1 19.2564 20.8289 50.1545 0
2260 1 2.91717 22.5005 50.0181 0
2258 1 5.34876 22.0424 50.0522 0
1252 1 6.77363 22.3921 50.0201 0
3322 1 9.1794 21.7607 50.1746 0
487 1 9.53104 23.1888 50.1515 0
142 1 11.9599 22.5681 50.0582 0
2285 1 13.3401 23.0266 50.0877 0
2283 1 14.367 22.0231 50.0691 0
2288 1 15.7309 22.4194 50.0381 0
1271 1 18.2032 21.8422 50.105 0
485 1 10.928 23.5427 50.134 0
1272 1 18.5352 23.2081 50.1123 0
1269 1 17.464 24.1981 50.0394 0
489 1 19.9167 23.6548 50.1324 0
3205 1 10.1672 25.9936 50.0427 0
484 1 11.1889 24.9799 50.0647 0
1265 1 12.585 25.4194 50.0255 0
1182 1 20.2687 25.0845 50.1192 0
2174 1 19.2128 26.0663 50.0057 0
3192 1 -1.74004 27.4013 48.3861 0
3188 1 1.34185 27.3958 49.5149 0
3183 1 2.78582 27.7291 49.7566 0
3182 1 3.87103 26.782 49.6831 0
2121 1 5.29699 27.187 49.8465 0
3209 1 7.74335 26.6142 49.9565 0
1267 1 14.3271 27.2195 49.8774 0
2170 1 16.7578 26.6375 49.862 0
3187 1 -0.870706 28.4797 48.8072 0
3186 1 0.447495 28.5468 49.3634 0
2117 1 3.18811 29.1351 49.9903 0
483 1 14.6726 28.6521 49.914 0
2173 1 17.0972 28.0509 49.9227 0
2118 1 -1.62192 29.7365 48.5569 0
3240 1 -1.4068 30.9806 49.1635 0
3241 1 -0.150537 31.0565 49.7638 0
2150 1 0.791728 29.9175 49.8055 0
3211 1 13.6076 29.5995 49.9327 0
3869 1 -2.47344 31.9465 49.2966 0
3204 1 10.5041 27.3786 50.0759 0
2127 1 11.9132 27.7632 50.0904 0
1264 1 12.9652 26.7932 50.0056 0
2175 1 19.4667 27.4828 50.0564 0
2119 1 5.61626 28.5602 50.0828 0
3203 1 6.98943 28.9791 50.2121 0
3206 1 8.07084 28.0081 50.165 0
3207 1 9.47002 28.3854 50.1698 0
3212 1 12.2547 29.1839 50.1317 0
482 1 16.0731 29.0495 50.0083 0
2172 1 18.4293 28.464 50.011 0
2149 1 2.19927 30.1904 50.1564 0
1151 1 4.55597 29.6178 50.1805 0
4096 1 4.9039 31.0113 50.4334 0
3200 1 7.34412 30.3476 50.4929 0
3201 1 8.74228 30.7856 50.5405 0
3202 1 9.79151 29.8091 50.3039 0
3213 1 11.203 30.2033 50.2051 0
3210 1 13.9781 31.0084 50.0664 0
2115 1 16.381 30.463 50.0813 0
3173 1 18.7829 29.8558 50.1199 0
3175 1 17.75 30.8797 50.1733 0
3174 1 20.1802 30.2647 50.0225 0
4819 1 0.129227 32.3083 50.4274 0
4820 1 1.47202 32.5632 50.8157 0
4568 1 2.52281 31.5644 50.6222 0
4569 1 3.89694 31.974 50.7077 0
4097 1 6.29692 31.3032 50.5512 0
4098 1 6.6691 32.698 50.7962 0
3197 1 9.07122 32.1625 50.7006 0
4103 1 10.472 32.5733 50.5858 0
4105 1 11.5154 31.5834 50.3046 0
4104 1 12.9151 31.9629 50.2092 0
2114 1 15.3583 31.4284 50.107 0
4565 1 18.0931 32.2511 50.1442 0
4567 1 19.4818 32.7004 50.0271 0
4817 1 -0.884927 33.3335 50.4835 0
3242 1 -2.24427 33.1725 50.0396 0
4816 1 1.88835 33.9326 51.2227 0
4571 1 3.28205 34.3279 51.1853 0
4570 1 4.23284 33.335 50.9629 0
4099 1 5.63172 33.7233 51.0073 0
3196 1 8.02256 33.1791 50.8193 0
4100 1 10.8314 33.992 50.6538 0
4101 1 13.2233 33.3798 50.3744 0
1148 1 14.5953 33.8527 50.3472 0
4564 1 17.0014 33.2581 50.2587 0
2116 1 15.6752 32.8257 50.2855 0
4566 1 19.8257 34.0869 50.1131 0
4128 1 -1.52758 35.5212 51.1284 0
4818 1 -0.492833 34.5151 51.1455 0
4815 1 0.821046 34.925 51.3649 0
4116 1 3.59115 35.7487 51.2739 0
4089 1 5.94711 35.0999 51.0979 0
4088 1 7.33194 35.5476 50.9167 0
3198 1 8.37302 34.5801 50.8821 0
3199 1 9.75913 34.9826 50.8334 0
4102 1 12.2153 34.3834 50.5104 0
2124 1 12.5155 35.7814 50.6097 0
1147 1 14.9845 35.2738 50.4606 0
1146 1 16.3223 35.6477 50.449 0
4563 1 18.7576 35.0508 50.2575 0
4562 1 17.3869 34.6482 50.3615 0
4126 1 -1.12997 36.8493 51.1156 0
4125 1 0.205236 37.3287 51.3153 0
4127 1 1.18477 36.3071 51.5587 0
4117 1 2.58987 36.7276 51.4367 0
4087 1 4.95463 36.1465 51.2048 0
4086 1 7.67013 36.9601 50.9189 0
3195 1 9.05676 37.3923 50.8649 0
2126 1 10.0234 36.3965 50.825 0
2125 1 11.4503 36.7234 50.7453 0
444 1 13.897 36.2024 50.548 0
114 1 16.7461 37.0607 50.4703 0
113 1 18.0858 37.4589 50.4651 0
458 1 19.1112 36.4755 50.3452 0
3234 1 -1.90927 38.9035 50.0542 0
3239 1 -2.10941 37.5899 50.4565 0
3231 1 0.428182 38.7072 50.9347 0
3230 1 2.84223 38.1256 51.2441 0
4094 1 5.25674 37.5643 51.2515 0
4093 1 4.25881 38.5674 51.2275 0
4095 1 6.66226 37.9483 51.0711 0
3194 1 9.38443 38.7811 50.9224 0
2123 1 11.8185 38.1425 50.8224 0
448 1 13.1908 38.5712 50.7334 0
112 1 14.2283 37.5665 50.6047 0
109 1 15.6453 37.9705 50.5397 0
116 1 18.3624 38.8172 50.376 0
3233 1 -0.61586 39.5411 50.3773 0
3238 1 2.10499 40.5525 50.8856 0
3232 1 1.79618 39.1328 51.0135 0
4092 1 4.54244 39.989 51.1638 0
4090 1 6.96688 39.3862 51.0588 0
4091 1 5.92884 40.3851 51.1664 0
3193 1 8.32267 39.7372 51.0455 0
445 1 11.1127 40.503 50.9952 0
2122 1 10.794 39.1286 50.9207 0
446 1 13.4987 39.9779 50.7953 0
110 1 14.8959 40.3514 50.6492 0
111 1 15.9353 39.4121 50.4983 0
115 1 17.2845 39.8219 50.3907 0
1189 1 19.7057 39.2231 50.2681 0
1191 1 20.0641 40.6293 50.3209 0
4122 1 -1.14091 41.8094 49.5685 0
4121 1 -1.60276 42.9843 49.2937 0
3218 1 -1.55721 45.2914 49.5461 0
4124 1 -0.724535 44.1327 49.7457 0
4119 1 -0.290371 40.9541 50.1611 0
4118 1 1.07234 41.5186 50.5626 0
3237 1 3.47881 40.9753 51.0288 0
2111 1 6.23997 41.7708 51.2664 0
1145 1 8.65809 41.1384 51.208 0
2108 1 7.62381 42.1299 51.4359 0
443 1 10.0581 41.5418 51.1991 0
447 1 12.4756 40.9679 50.9726 0
1173 1 15.2401 41.7611 50.6862 0
1174 1 16.629 42.1944 50.5731 0
1172 1 17.6245 41.2204 50.387 0
1171 1 19.0023 41.6508 50.3441 0
4120 1 1.38946 43.0127 50.6347 0
3235 1 3.80559 42.3852 51.0684 0
3236 1 2.80352 43.4125 51.026 0
2110 1 5.19506 42.8033 51.2884 0
1177 1 10.3984 42.8977 51.4826 0
2153 1 11.8058 43.2869 51.4478 0
2152 1 12.8361 42.3185 51.1896 0
2151 1 14.2133 42.7444 50.9972 0
1175 1 16.9075 43.6067 50.709 0
2238 1 19.3245 43.0043 50.3114 0
4123 1 0.476687 44.134 50.4832 0
2139 1 3.15029 44.7678 51.3282 0
2109 1 5.59292 44.1344 51.5348 0
2157 1 13.4894 45.082 51.4885 0
2158 1 14.5038 44.109 51.1832 0
2156 1 15.9009 44.5671 51.0565 0
2239 1 18.294 43.9792 50.5387 0
3282 1 18.6129 45.4024 50.5987 0
2142 1 -1.40872 46.416 50.3029 0
2140 1 0.776173 45.5289 50.9931 0
2141 1 -0.231524 46.5841 51.032 0
2138 1 2.11767 45.7859 51.4819 0
2155 1 16.2953 45.9334 51.257 0
3283 1 17.661 46.3155 50.9837 0
3279 1 19.9854 45.8039 50.4511 0
2254 1 -2.3422 48.5395 51.3098 0
3284 1 18.0288 47.7125 51.2493 0
3281 1 19.3969 48.1775 50.9775 0
3280 1 20.3501 47.1996 50.4842 0
4822 1 19.8114 49.5366 51.1923 0
2112 1 7.97035 43.5166 51.6302 0
2137 1 4.56355 45.1446 51.5961 0
2113 1 6.96846 44.5637 51.7127 0
1176 1 9.36664 43.8981 51.7244 0
2164 1 9.70674 45.3429 51.8904 0
2154 1 12.1207 44.7318 51.5889 0
2134 1 4.84473 46.5414 51.9265 0
1162 1 7.30292 45.9601 51.9067 0
1163 1 6.19715 46.9198 52.0669 0
2163 1 8.66914 46.3495 52.0562 0
2161 1 11.0895 45.7091 51.9126 0
3243 1 13.8279 46.4121 51.7977 0
3246 1 15.2375 46.852 51.6871 0
457 1 0.0379486 47.7929 51.7164 0
1164 1 1.342 48.0929 52.1508 0
2135 1 2.40227 47.1225 52.0157 0
2136 1 3.76709 47.4929 52.2741 0
1169 1 6.59106 48.2592 52.5035 0
2162 1 9.00777 47.7143 52.3497 0
3248 1 10.414 48.061 52.4591 0
3249 1 11.44 47.1027 52.1695 0
3250 1 12.8287 47.4249 52.1332 0
2159 1 16.9899 48.6379 51.7352 0
3245 1 15.6113 48.2592 51.9638 0
1168 1 -1.01011 48.7645 51.849 0
2145 1 -0.810018 50.0388 52.5182 0
2143 1 1.60307 49.4065 52.7081 0
4576 1 2.98346 49.6982 52.9358 0
4575 1 4.07171 48.8105 52.648 0
4574 1 5.51349 49.2169 52.7625 0
1170 1 7.99493 48.7482 52.5739 0
3227 1 8.28101 50.1304 52.8797 0
3247 1 10.8298 49.4173 52.8518 0
3251 1 12.2775 49.7294 52.9584 0
3252 1 13.2613 48.8019 52.4602 0
3244 1 14.6436 49.1833 52.4092 0
4139 1 17.433 49.9684 52.0913 0
3222 1 -1.89532 51.0238 52.7032 0
2147 1 0.517078 50.3876 52.899 0
4114 1 7.24399 51.1708 53.0485 0
3228 1 9.75393 50.4378 53.0803 0
2229 1 15.0623 50.4677 52.8312 0
4140 1 16.5345 50.8281 52.7536 0
4825 1 18.7995 50.358 51.8594 0
4826 1 19.2274 51.6396 52.3453 0
2146 1 0.829007 51.6736 53.4005 0
4577 1 3.33321 51.0322 53.4353 0
4573 1 4.71616 51.3914 53.5877 0
4572 1 5.8473 50.5907 53.1486 0
3229 1 10.3652 51.676 53.4466 0
456 1 12.7709 50.9856 53.4306 0
2228 1 14.1441 51.4226 53.3267 0
3224 1 -1.5907 52.3381 53.1643 0
2144 1 -0.184283 52.7348 53.4572 0
3220 1 2.21975 51.9118 53.779 0
3219 1 2.44731 53.1513 54.3224 0
4113 1 4.91609 52.736 53.9526 0
4115 1 7.37123 52.6423 53.2675 0
4112 1 6.13171 53.4053 53.5603 0
3225 1 9.84356 53.0509 53.4775 0
1161 1 11.7955 51.9618 53.6988 0
1160 1 12.2272 53.2793 53.7662 0
2227 1 14.5927 52.8459 53.5838 0
4141 1 16.9752 52.0638 53.3169 0
3277 1 16.0015 53.08 53.7361 0
4581 1 18.4208 52.4142 53.1972 0
1165 1 -2.31176 54.7854 53.3425 0
1167 1 0.129413 54.1854 53.8023 0
2039 1 1.48886 54.3057 54.249 0
3127 1 3.76552 54.9348 54.421 0
3221 1 3.83344 53.4889 54.5023 0
4110 1 6.09695 54.8484 53.6179 0
3226 1 8.51689 53.5006 53.2661 0
1159 1 10.9435 53.943 53.6574 0
1223 1 13.5105 53.9179 53.7474 0
3278 1 16.5366 54.3543 54.1104 0
4138 1 18.0097 54.5356 54.2356 0
4579 1 20.1826 54.2108 53.1474 0
4580 1 18.9444 53.6355 53.6573 0
464 1 20.4712 62.5449 51.4079 0
1195 1 20.3821 63.927 51.0029 0
126 1 14.1571 65.909 51.5071 0
1210 1 16.7283 64.6206 51.5521 0
468 1 16.6229 66.0004 51.3002 0
1197 1 19.1742 64.692 51.2129 0
1198 1 19.0925 66.0617 50.9559 0
125 1 12.8391 66.5255 51.4205 0
124 1 15.3377 66.6812 51.271 0
467 1 17.8344 66.749 51.071 0
2202 1 20.2668 66.7212 50.5492 0
4058 1 9.01783 68.565 51.3352 0
4057 1 10.3008 67.8874 51.3988 0
2040 1 11.482 68.6301 51.1399 0
129 1 12.7816 67.9553 51.1706 0
128 1 13.9735 68.7228 50.9665 0
127 1 15.2406 68.0935 50.9565 0
470 1 16.422 68.7849 50.6908 0
472 1 17.6971 68.1365 50.7259 0
471 1 18.9401 68.8414 50.4447 0
2199 1 20.184 68.118 50.3222 0
2132 1 9.68978 55.8151 53.1038 0
3217 1 8.28382 57.8145 52.9016 0
2133 1 9.58074 57.222 52.9175 0
1157 1 10.7781 57.9898 52.8881 0
3274 1 12.1346 57.4193 53.0866 0
3216 1 8.25501 59.2839 52.721 0
1158 1 10.7524 59.4145 52.7065 0
450 1 13.2394 59.5865 52.7399 0
3275 1 13.3223 58.2091 53.1105 0
1215 1 15.6882 59.7487 52.8233 0
24 1 1.91323 61.1285 53.0965 0
1156 1 4.40202 61.27 52.9644 0
3215 1 7.01008 59.9342 52.8444 0
2129 1 9.4733 60.0454 52.6295 0
453 1 11.9694 60.157 52.5595 0
451 1 14.4434 60.3771 52.6564 0
1216 1 16.8899 60.5189 52.668 0
1221 1 18.1777 59.8948 52.8703 0
1220 1 19.3685 60.5445 52.4585 0
12 1 0.614803 61.9613 53.0848 0
121 1 3.12359 61.9524 52.9609 0
1155 1 5.61346 62.0152 52.9272 0
2131 1 6.90923 61.4223 52.7469 0
2130 1 8.12545 62.1774 52.6273 0
1152 1 10.6338 62.2346 52.3124 0
2128 1 9.43437 61.4722 52.537 0
455 1 11.8765 61.5563 52.2319 0
454 1 13.0988 62.3366 52.159 0
452 1 14.3936 61.7544 52.3267 0
1212 1 15.5765 62.5322 52.0625 0
1209 1 16.852 61.8512 52.1856 0
1207 1 18.0458 62.5868 51.8781 0
463 1 19.306 61.8912 51.9002 0
477 1 -2.28088 63.7189 52.8398 0
136 1 -0.831344 64.1886 52.9255 0
11 1 0.500326 63.3938 52.9436 0
10 1 1.8011 64.1233 53.0317 0
120 1 3.09112 63.4022 52.997 0
122 1 4.34338 64.1735 52.9808 0
123 1 5.55644 63.4579 52.8526 0
2044 1 6.76631 64.2713 52.5813 0
2045 1 8.01349 63.5975 52.4917 0
2046 1 9.23656 64.3144 52.2161 0
1153 1 10.5286 63.6242 52.1344 0
25 1 11.667 64.3788 51.8915 0
27 1 13.0061 63.7504 51.9581 0
1211 1 15.5021 63.9253 51.8833 0
1208 1 17.97 63.9732 51.5868 0
134 1 -0.708168 65.676 53.0238 0
1091 1 4.32288 65.6169 52.8988 0
3131 1 6.72617 65.702 52.3816 0
4056 1 9.17971 65.7428 52.0241 0
26 1 11.6342 65.7893 51.647 0
28 1 14.1699 64.5524 51.8376 0
135 1 -1.76534 66.7083 52.8154 0
1092 1 3.021 66.304 52.9711 0
3130 1 5.46419 66.3923 52.5664 0
4054 1 7.92831 66.3801 51.9753 0
4055 1 10.3649 66.4712 51.7603 0
132 1 -1.57082 68.1627 52.9297 0
1093 1 3.03787 67.7305 52.7924 0
3128 1 5.42531 67.8051 52.322 0
1094 1 4.1734 68.4882 52.3901 0
3129 1 6.61944 68.5077 51.7501 0
4059 1 7.8341 67.8172 51.6356 0
1166 1 -0.856583 55.2314 53.64 0
3125 1 2.42346 55.4046 54.2366 0
4106 1 4.88327 55.6293 53.9259 0
4111 1 7.25558 55.6327 53.3487 0
2148 1 8.50284 55.0033 53.1922 0
449 1 10.9384 55.265 53.3643 0
3273 1 12.1771 55.9992 53.3795 0
3271 1 13.4667 55.3181 53.5732 0
3272 1 14.6648 56.1439 53.6473 0
3270 1 15.9225 55.6978 54.0709 0
3269 1 17.0568 56.5823 54.2753 0
4135 1 18.3278 55.9242 54.3384 0
4136 1 19.5453 56.4912 53.9409 0
393 1 -1.69173 57.5494 53.5468 0
1081 1 -0.52548 56.6521 53.64 0
1083 1 0.823813 57.3671 53.7013 0
3124 1 2.14768 56.7166 53.867 0
3126 1 3.37352 57.5703 53.6149 0
4108 1 4.68909 57.012 53.6099 0
4109 1 5.89776 57.748 53.2904 0
4107 1 7.14456 57.0389 53.2068 0
3276 1 14.6168 57.619 53.4246 0
2226 1 17.0424 57.8938 53.7528 0
1217 1 19.5686 57.8837 53.4903 0
1078 1 -1.53637 58.9206 53.8848 0
1077 1 -0.262493 59.2 54.0662 0
1085 1 0.955285 58.833 53.7629 0
1084 1 2.00884 59.6665 53.3789 0
1082 1 3.28148 59.0234 53.419 0
3214 1 5.7912 59.1846 53.1387 0
2225 1 15.8299 58.392 53.3208 0
1222 1 18.2891 58.5631 53.406 0
1055 1 -2.43878 59.9506 53.5405 0
1079 1 -1.89014 61.2488 53.3517 0
1154 1 4.48203 59.8054 53.1962 0
1080 1 -0.571338 61.4064 53.3422 0
395 1 1.82757 65.5239 53.1788 0
1090 1 0.70526 67.5849 53.3712 0
394 1 0.570894 66.2416 53.3079 0
1089 1 -0.276872 68.5486 53.2335 0
1086 1 1.85473 68.3809 53.1303 0
3146 1 20.063 72.3867 49.7283 0
3144 1 20.0495 70.9383 49.9151 0
3145 1 18.7743 73.0474 49.8358 0
2049 1 18.7502 74.4988 49.766 0
1108 1 17.507 75.1988 49.8845 0
2048 1 19.9795 75.1968 49.6234 0
1113 1 15.0084 76.6151 49.9208 0
1110 1 17.4371 76.6596 49.7535 0
739 1 19.9822 76.6592 49.6144 0
1109 1 16.2208 77.3494 49.7731 0
99 1 16.1524 78.7857 49.728 0
738 1 18.6786 77.3546 49.5708 0
2059 1 18.6509 78.8156 49.5496 0
420 1 14.8881 79.4679 49.897 0
2058 1 17.3743 79.53 49.6263 0
3522 1 19.8745 79.5528 49.5 0
2054 1 14.8874 80.8941 49.9421 0
2056 1 16.1102 81.6441 49.8177 0
2060 1 17.3543 80.9411 49.6644 0
2061 1 18.5892 81.6862 49.5727 0
3523 1 19.8239 80.9984 49.5449 0
2057 1 16.048 83.1036 49.8332 0
2064 1 18.5487 83.1738 49.6798 0
1104 1 6.49431 69.9401 51.4813 0
1103 1 7.70786 70.6902 51.1011 0
2043 1 8.96052 69.9765 51.0165 0
2042 1 10.1631 70.7115 50.7573 0
2041 1 11.4517 70.0632 50.876 0
1102 1 12.6741 70.7699 50.6375 0
18 1 13.9221 70.1575 50.617 0
19 1 15.1464 70.8554 50.4515 0
469 1 16.3724 70.1859 50.3994 0
3143 1 18.8568 70.2757 50.2057 0
400 1 5.13039 72.085 51.5431 0
408 1 7.5851 72.0808 50.9155 0
1100 1 10.106 72.1123 50.5807 0
1101 1 12.6475 72.2329 50.511 0
20 1 15.1412 72.3095 50.2948 0
3142 1 17.5778 70.9385 50.2134 0
3141 1 17.6088 72.3583 50.1108 0
406 1 6.29246 72.7952 51.066 0
407 1 8.82839 72.8123 50.6811 0
1099 1 11.3454 72.8534 50.4521 0
22 1 13.8341 73.0097 50.3078 0
419 1 16.3904 73.0328 50.1702 0
399 1 5.06285 74.9924 51.2632 0
405 1 6.2595 74.2705 50.9363 0
403 1 8.78457 74.27 50.5985 0
404 1 7.46911 74.9936 50.6608 0
101 1 10.0062 74.9868 50.4977 0
102 1 11.2954 74.3175 50.4366 0
423 1 12.4874 75.078 50.3146 0
422 1 13.7522 74.4201 50.1939 0
1112 1 14.9785 75.1303 50.0398 0
1111 1 16.2846 74.4638 50.0484 0
86 1 3.82203 77.1848 51.5197 0
15 1 5.01963 76.4148 51.2085 0
14 1 6.23424 77.1806 50.9169 0
21 1 7.53219 76.446 50.6809 0
100 1 8.73957 77.1597 50.5796 0
104 1 10.0151 76.4638 50.4411 0
103 1 11.2643 77.2441 50.3631 0
425 1 12.5089 76.5806 50.3539 0
416 1 3.72602 78.6048 51.3692 0
83 1 6.19562 78.6406 50.8956 0
427 1 8.71156 78.6309 50.6995 0
1122 1 11.1604 78.7028 50.4551 0
421 1 13.6999 78.6814 50.1606 0
424 1 13.7235 77.2703 50.1743 0
412 1 2.45947 79.379 51.4954 0
415 1 4.94781 79.3337 51.1144 0
429 1 7.44837 79.3283 50.889 0
1121 1 9.96381 79.3914 50.6083 0
1123 1 12.4426 79.4005 50.3858 0
92 1 -0.418842 81.1906 51.3733 0
17 1 1.05116 81.6679 51.3303 0
411 1 2.38832 80.7894 51.3013 0
413 1 3.66843 81.481 51.2182 0
414 1 4.92657 80.7749 51.0416 0
84 1 6.20355 81.4472 50.9174 0
430 1 7.42684 80.7496 50.8567 0
428 1 8.61681 81.4817 50.7441 0
1120 1 9.93723 80.8362 50.6815 0
1119 1 11.1481 81.5619 50.5555 0
1118 1 12.4135 80.8571 50.4172 0
2052 1 13.6377 81.5729 50.2159 0
418 1 -1.53325 82.2283 51.0835 0
94 1 1.17618 83.1582 51.4466 0
13 1 3.69751 82.9105 51.3766 0
438 1 4.94248 83.6164 51.1826 0
437 1 7.35801 83.6123 50.7403 0
439 1 6.15208 82.8708 50.9416 0
108 1 8.62042 82.8877 50.6547 0
105 1 11.1287 82.9811 50.482 0
2055 1 13.6179 83.0125 50.1731 0
1098 1 -2.04496 70.5013 52.3736 0
1087 1 0.227191 69.8617 52.9445 0
1088 1 1.70963 69.8242 52.8453 0
396 1 2.77251 70.6557 52.4079 0
409 1 4.075 69.9104 52.1395 0
410 1 5.27473 70.6829 51.7676 0
1096 1 -0.647575 70.9322 52.5867 0
1095 1 -0.142703 72.3317 52.366 0
398 1 2.59615 72.0775 52.1011 0
1097 1 -1.38559 73.2691 52.1768 0
397 1 1.31075 72.7993 52.2026 0
402 1 3.87821 72.7948 51.7735 0
1247 1 -1.07659 74.6636 52.179 0
1246 1 0.269774 75.0484 52.4446 0
87 1 1.44586 74.3052 52.1663 0
401 1 3.89027 74.2459 51.6749 0
88 1 2.64552 74.9728 51.861 0
1242 1 -2.0887 75.6794 51.9729 0
1244 1 -1.86036 77.0831 52.1122 0
1245 1 0.413304 76.4089 52.5935 0
90 1 1.56465 77.1732 52.2016 0
89 1 2.66486 76.4214 51.8075 0
16 1 -0.0662966 78.7833 52.0336 0
1243 1 -0.547259 77.46 52.3737 0
85 1 1.40777 78.5757 51.9442 0
91 1 -0.891917 79.8492 51.7365 0
3313 1 -2.3346 79.4507 51.6347 0
2053 1 14.8165 83.7999 49.9808 0
2065 1 17.2664 83.8278 49.8684 0
4075 1 19.795 83.9262 49.5946 0
2066 1 18.4925 86.0175 49.9941 0
4074 1 19.7344 85.3301 49.7276 0
3136 1 -0.303438 93.0359 49.864 0
3135 1 0.802144 92.1069 49.8975 0
1128 1 2.15645 92.5377 49.6213 0
1130 1 3.311 91.725 49.9129 0
1132 1 4.66659 92.3279 49.8085 0
3133 1 -0.10668 94.4443 49.4913 0
436 1 2.31089 93.8897 49.2308 0
2096 1 3.60996 94.4084 49.1722 0
2097 1 4.77732 93.6832 49.5764 0
3165 1 5.98193 94.4596 49.6316 0
3164 1 7.19375 93.7567 49.9659 0
3132 1 -1.16286 95.4249 49.5296 0
442 1 1.23552 94.8545 49.1625 0
2105 1 1.4452 96.2366 48.9041 0
3171 1 3.81715 95.7449 48.8845 0
3166 1 6.0581 95.9011 49.4912 0
2036 1 -1.84249 97.8362 49.6466 0
441 1 -0.82987 96.858 49.4543 0
2106 1 0.550982 97.2638 49.2441 0
3172 1 2.75993 96.6712 48.6514 0
3168 1 4.96388 96.496 49.0473 0
3167 1 7.22349 96.5731 49.85 0
3139 1 -2.29672 84.6463 50.7247 0
417 1 -1.23424 83.6418 50.9273 0
96 1 0.0719399 84.0985 51.1638 0
1127 1 5.00008 85.0201 51.1849 0
440 1 7.34528 85.0382 50.7173 0
107 1 9.82609 83.6901 50.5506 0
106 1 9.80916 85.1467 50.4261 0
426 1 12.343 83.6972 50.3142 0
1117 1 12.3394 85.1585 50.3336 0
3138 1 -2.02918 86.0511 50.6697 0
2047 1 -0.633322 86.5284 50.8028 0
98 1 0.268049 85.4864 51.1548 0
97 1 1.55913 85.9544 51.3265 0
1126 1 3.90104 85.7797 51.4985 0
1125 1 6.13027 85.8501 50.8755 0
435 1 8.54052 85.8461 50.4639 0
1116 1 11.0346 85.8687 50.3484 0
2072 1 13.5658 85.9342 50.139 0
2068 1 14.7929 85.2504 50.0434 0
2069 1 15.9925 85.9787 50.099 0
2063 1 17.2568 85.2204 50.0273 0
4062 1 -0.211337 87.947 50.6445 0
23 1 2.09305 87.2997 51.0818 0
4064 1 1.18748 88.3658 50.6884 0
1124 1 3.5878 87.1411 51.1367 0
2075 1 4.64613 88.0014 50.7641 0
2074 1 5.95749 87.3273 50.6591 0
2082 1 7.14513 88.0401 50.445 0
2079 1 8.46087 87.2919 50.3721 0
2080 1 9.6829 88.0122 50.2488 0
1134 1 11.0182 87.3709 50.3668 0
1133 1 12.2632 88.0665 50.3139 0
2071 1 13.506 87.3423 50.1244 0
2067 1 14.7276 88.0844 50.1921 0
2070 1 15.9826 87.414 50.1439 0
433 1 17.2523 88.1586 50.135 0
1115 1 18.4749 87.4506 50.0729 0
1114 1 19.7736 88.1547 50.0631 0
4063 1 -1.29977 88.8401 50.4056 0
4065 1 1.63775 89.7409 50.3405 0
2076 1 4.48209 89.4643 50.4843 0
2081 1 7.10428 89.4608 50.3303 0
2084 1 9.69839 89.4692 50.132 0
1136 1 12.2075 89.5164 50.2422 0
434 1 14.6742 89.5289 50.2818 0
432 1 17.231 89.5942 50.2202 0
259 1 19.7143 89.5971 50.16 0
4060 1 -0.916064 90.2413 50.1848 0
3140 1 -1.95256 91.2191 50.1954 0
4061 1 0.487324 90.6852 50.1152 0
1129 1 3.13707 90.2124 50.3141 0
2073 1 5.77957 90.2019 50.3417 0
2083 1 8.37746 90.1549 50.1987 0
1137 1 10.9219 90.1754 50.1852 0
1135 1 13.415 90.2424 50.3686 0
431 1 15.9552 90.2808 50.2838 0
257 1 18.4517 90.3306 50.218 0
3137 1 -1.6639 92.5834 50.098 0
1131 1 5.81459 91.5913 50.0775 0
2078 1 7.12446 92.3195 50.0879 0
2077 1 8.38285 91.6301 50.196 0
4560 1 9.63442 92.354 50.2847 0
4558 1 12.1871 92.3746 50.4058 0
4559 1 10.9079 91.6478 50.3135 0
4081 1 13.4374 91.6838 50.4729 0
4080 1 14.6846 92.3694 50.5465 0
50 1 15.9404 91.6836 50.4404 0
2580 1 17.1838 92.4491 50.4921 0
2579 1 18.4566 91.7309 50.3733 0
2582 1 19.6767 92.5594 50.3057 0
4809 1 8.43974 94.4799 50.1276 0
4810 1 9.66537 93.8008 50.3136 0
4561 1 12.1875 93.8169 50.4259 0
4811 1 10.8832 94.4889 50.4537 0
4079 1 13.3764 94.5709 50.5288 0
4078 1 14.678 93.8078 50.6168 0
2581 1 17.1334 93.9106 50.5331 0
743 1 15.8857 94.5806 50.6165 0
3564 1 18.3416 94.6691 50.4146 0
3565 1 19.6418 93.9872 50.3955 0
4812 1 8.42934 95.8846 50.1218 0
4813 1 10.8304 95.9813 50.3974 0
3159 1 13.3033 96.0152 50.5988 0
745 1 15.8469 96.0205 50.7201 0
3562 1 18.3339 96.086 50.5135 0
4814 1 9.62703 96.6738 50.3705 0
3160 1 12.0481 96.7405 50.4469 0
3156 1 14.5615 96.7631 50.6308 0
744 1 17.0781 96.7879 50.6753 0
3561 1 19.5446 96.8629 50.4369 0
95 1 2.64634 85.0637 51.6206 0
93 1 2.49516 83.6668 51.5636 0
3118 1 -1.51522 99.1851 49.6964 0
2107 1 2.37057 99.0313 49.2083 0
2104 1 0.940492 98.6632 49.3903 0
3170 1 3.29636 98.0247 48.8808 0
3169 1 4.7875 97.9475 49.0975 0
1140 1 5.82504 98.8059 49.5151 0
3163 1 7.13092 98.0593 49.8143 0
3120 1 -0.101693 99.5649 49.586 0
3119 1 0.28668 100.942 49.5521 0
2100 1 2.82668 100.376 49.345 0
2101 1 4.23009 100.871 49.357 0
1141 1 5.62438 100.244 49.6055 0
1142 1 7.0038 100.944 49.822 0
4052 1 -2.2095 101.542 49.6833 0
4051 1 -0.799522 101.889 49.5646 0
2099 1 1.69974 101.335 49.4129 0
2103 1 4.43844 102.346 49.2384 0
1144 1 7.0538 102.379 49.7014 0
1143 1 5.74646 102.694 49.3587 0
4808 1 -1.5742 104.279 49.619 0
4050 1 -0.490743 103.276 49.4553 0
2098 1 1.99121 102.726 49.3126 0
2038 1 0.859589 103.632 49.3298 0
2102 1 3.3117 103.189 49.1173 0
1139 1 8.19808 103.169 49.8192 0
2090 1 10.7377 103.167 49.9024 0
4807 1 -1.25671 105.684 49.6936 0
724 1 2.38199 105.49 48.9338 0
2037 1 1.08143 105.055 49.1672 0
725 1 3.48153 104.543 49.0044 0
722 1 4.62746 105.466 49.3337 0
726 1 5.92501 105.198 49.4663 0
1536 1 7.15758 105.616 49.7133 0
1539 1 8.27613 104.66 49.6499 0
1538 1 9.55837 105.313 49.5429 0
717 1 12.0347 105.199 49.4179 0
715 1 10.7832 104.553 49.6221 0
1534 1 13.27 104.623 49.9252 0
3121 1 0.0984959 106.043 49.4695 0
3122 1 0.48794 107.438 49.6319 0
723 1 2.76697 106.821 49.1269 0
721 1 4.18875 106.826 49.4402 0
1537 1 7.2887 107.105 49.9305 0
1541 1 9.68456 106.723 49.4025 0
1530 1 10.9244 107.284 49.0453 0
716 1 12.1348 106.59 49.1488 0
1509 1 13.2576 107.44 49.4247 0