ITEM: TIMESTEP
7550000
ITEM: NUMBER OF ATOMS
4947
ITEM: BOX BOUNDS pp pp pp
-2.4750847432410978e+00 1.1247508474323956e+02
-2.2394241755446918e+00 1.1223942417554530e+02
0.0000000000000000e+00 1.0000000000000000e+02
ITEM: ATOMS id type x y z temp energy
1.000000000000000000e+00 1.000000000000000000e+00 1.447390000000000043e+01 1.167040000000000077e+01 5.023140000000000072e+01 3.031499999999999773e+02 2.025664034421116311e-01
2.000000000000000000e+00 1.000000000000000000e+00 4.137420000000000186e+01 6.625480000000000302e+01 5.019369999999999976e+01 2.969089999999999918e+02 2.030197296814413299e-01
3.000000000000000000e+00 1.000000000000000000e+00 3.019590000000000174e+01 6.381689999999999685e+01 5.035289999999999822e+01 3.016410000000000196e+02 1.983668163785957950e-01
4.000000000000000000e+00 1.000000000000000000e+00 4.008039999999999736e+01 6.694370000000000687e+01 5.024080000000000013e+01 2.922789999999999964e+02 2.022742984952596301e-01
5.000000000000000000e+00 1.000000000000000000e+00 6.966410000000000480e+01 4.268919999999999959e+01 4.936460000000000292e+01 2.981179999999999950e+02 2.012672256232413137e-01
6.000000000000000000e+00 1.000000000000000000e+00 6.840590000000000259e+01 4.203929999999999723e+01 4.926610000000000156e+01 2.996100000000000136e+02 2.012089796123644470e-01
7.000000000000000000e+00 1.000000000000000000e+00 7.938020000000000209e+01 6.981059999999999377e+01 5.008480000000000132e+01 2.974180000000000064e+02 2.034363265895962336e-01
8.000000000000000000e+00 1.000000000000000000e+00 8.426819999999999311e+01 6.863710000000000377e+01 5.009949999999999903e+01 3.011639999999999873e+02 2.025968361920203742e-01
9.000000000000000000e+00 1.000000000000000000e+00 7.480490000000000350e+01 8.271030000000000371e+01 4.992399999999999949e+01 3.029950000000000045e+02 2.013585780524223823e-01
1.000000000000000000e+01 1.000000000000000000e+00 1.714050000000000074e+00 6.425060000000000571e+01 5.240720000000000312e+01 3.019529999999999745e+02 1.970260409817636560e-01
1.100000000000000000e+01 1.000000000000000000e+00 4.124539999999999873e-01 6.353059999999999974e+01 5.230239999999999867e+01 3.060950000000000273e+02 1.793861411467006783e-01
1.200000000000000000e+01 1.000000000000000000e+00 5.282980000000000453e-01 6.210520000000000351e+01 5.260799999999999699e+01 3.003489999999999895e+02 1.832899265289648083e-01
1.300000000000000000e+01 1.000000000000000000e+00 3.701099999999999834e+00 8.288479999999999848e+01 5.068710000000000093e+01 2.945179999999999723e+02 1.980973539634359737e-01
1.400000000000000000e+01 1.000000000000000000e+00 6.254620000000000068e+00 7.718330000000000268e+01 5.024110000000000298e+01 2.956250000000000000e+02 2.021609194872713289e-01
1.500000000000000000e+01 1.000000000000000000e+00 5.001619999999999955e+00 7.642449999999999477e+01 5.057050000000000267e+01 2.968670000000000186e+02 1.994866383844454416e-01
1.600000000000000000e+01 1.000000000000000000e+00 -5.093879999999999936e-02 7.876699999999999591e+01 5.139999999999999858e+01 2.981890000000000214e+02 1.913787705448736498e-01
1.700000000000000000e+01 1.000000000000000000e+00 1.007689999999999975e+00 8.161100000000000421e+01 5.060540000000000305e+01 3.030830000000000268e+02 1.756198756156166496e-01
1.800000000000000000e+01 1.000000000000000000e+00 1.390889999999999915e+01 7.005870000000000175e+01 4.996580000000000155e+01 2.989800000000000182e+02 2.034993714988930502e-01
1.900000000000000000e+01 1.000000000000000000e+00 1.512920000000000087e+01 7.080840000000000600e+01 4.999320000000000164e+01 3.025590000000000259e+02 2.029542484760391008e-01
2.000000000000000000e+01 1.000000000000000000e+00 1.507019999999999982e+01 7.224370000000000402e+01 5.004829999999999757e+01 3.023720000000000141e+02 2.038162118307657034e-01
2.100000000000000000e+01 1.000000000000000000e+00 7.484140000000000015e+00 7.644580000000000553e+01 5.003710000000000235e+01 2.941549999999999727e+02 2.026182236719287766e-01
2.200000000000000000e+01 1.000000000000000000e+00 1.379850000000000065e+01 7.297310000000000230e+01 4.993139999999999645e+01 2.983059999999999832e+02 2.035994580223663974e-01
2.300000000000000000e+01 1.000000000000000000e+00 2.102990000000000137e+00 8.722339999999999804e+01 5.038210000000000122e+01 3.005550000000000068e+02 1.858059033808581451e-01
2.400000000000000000e+01 1.000000000000000000e+00 1.810300000000000020e+00 6.137120000000000175e+01 5.274289999999999878e+01 3.038720000000000141e+02 1.898275024438916270e-01
2.500000000000000000e+01 1.000000000000000000e+00 1.164269999999999960e+01 6.446410000000000196e+01 5.138609999999999900e+01 2.992620000000000005e+02 2.048498090209185107e-01
2.600000000000000000e+01 1.000000000000000000e+00 1.159650000000000070e+01 6.582840000000000202e+01 5.099799999999999756e+01 2.965470000000000255e+02 2.045900551204113405e-01
2.700000000000000000e+01 1.000000000000000000e+00 1.290090000000000003e+01 6.375769999999999982e+01 5.144489999999999696e+01 3.004859999999999900e+02 2.046424344986734201e-01
2.800000000000000000e+01 1.000000000000000000e+00 1.414160000000000039e+01 6.444350000000000023e+01 5.109839999999999804e+01 3.000520000000000209e+02 2.036548450817467493e-01
2.900000000000000000e+01 1.000000000000000000e+00 3.025019999999999953e+01 6.232849999999999824e+01 5.029509999999999792e+01 2.952520000000000095e+02 1.962698881090243208e-01
3.000000000000000000e+01 1.000000000000000000e+00 7.726149999999999807e+01 1.109140000000000015e+02 5.185999999999999943e+01 2.989719999999999800e+02 1.930770961220832360e-01
3.100000000000000000e+01 1.000000000000000000e+00 7.590420000000000300e+01 1.103569999999999993e+02 5.202940000000000254e+01 2.995280000000000200e+02 1.954176149892422609e-01
3.200000000000000000e+01 1.000000000000000000e+00 4.260949999999999704e+01 6.704640000000000555e+01 5.034539999999999793e+01 3.012440000000000282e+02 2.035738133407658801e-01
3.300000000000000000e+01 1.000000000000000000e+00 3.657500000000000284e+01 6.039359999999999928e+01 5.016960000000000264e+01 3.000889999999999986e+02 2.031909470568767639e-01
3.400000000000000000e+01 1.000000000000000000e+00 3.535849999999999937e+01 -2.263459999999999805e+00 4.631669999999999732e+01 2.990360000000000014e+02 2.051691045919419309e-01
3.500000000000000000e+01 1.000000000000000000e+00 4.822619999999999862e+01 1.008139999999999930e+02 4.901850000000000307e+01 2.951850000000000023e+02 2.017633501922549144e-01
3.600000000000000000e+01 1.000000000000000000e+00 4.935799999999999699e+01 1.015909999999999940e+02 4.927790000000000248e+01 3.033210000000000264e+02 2.023788402469511583e-01
3.700000000000000000e+01 1.000000000000000000e+00 4.449889999999999901e+01 9.720069999999999766e+01 4.865330000000000155e+01 2.992139999999999986e+02 2.026444403402331007e-01
3.800000000000000000e+01 1.000000000000000000e+00 4.574040000000000106e+01 9.648590000000000089e+01 4.872330000000000183e+01 3.011390000000000100e+02 2.023302442114276734e-01
3.900000000000000000e+01 1.000000000000000000e+00 2.522739999999999938e+01 6.374699999999999989e+01 5.003979999999999961e+01 3.020149999999999864e+02 2.003479751940589748e-01
4.000000000000000000e+01 1.000000000000000000e+00 2.407359999999999900e+01 6.014629999999999654e+01 5.078190000000000026e+01 2.895380000000000109e+02 1.983599355334604575e-01
4.100000000000000000e+01 1.000000000000000000e+00 2.525300000000000011e+01 6.225580000000000069e+01 5.013790000000000191e+01 3.006960000000000264e+02 2.002052736449184689e-01
4.200000000000000000e+01 1.000000000000000000e+00 2.402870000000000061e+01 6.155100000000000193e+01 5.037550000000000239e+01 2.982789999999999964e+02 2.015009375932938496e-01
4.300000000000000000e+01 1.000000000000000000e+00 3.016090000000000160e+01 6.670289999999999964e+01 5.021399999999999864e+01 3.033179999999999836e+02 2.002755475686698317e-01
4.400000000000000000e+01 1.000000000000000000e+00 3.014600000000000080e+01 6.817459999999999809e+01 5.019290000000000163e+01 2.974130000000000109e+02 2.009555392305536203e-01
4.500000000000000000e+01 1.000000000000000000e+00 3.960470000000000113e+01 9.004170000000000584e+01 4.935360000000000014e+01 2.987540000000000191e+02 2.029212669460058183e-01
4.600000000000000000e+01 1.000000000000000000e+00 3.888859999999999673e+01 6.622589999999999577e+01 5.024399999999999977e+01 3.041840000000000259e+02 2.029585112589400442e-01
4.700000000000000000e+01 1.000000000000000000e+00 3.993010000000000304e+01 7.560989999999999611e+01 5.006839999999999691e+01 2.982160000000000082e+02 2.029162656075237936e-01
4.800000000000000000e+01 1.000000000000000000e+00 4.257529999999999859e+01 6.852580000000000382e+01 5.048930000000000007e+01 3.030439999999999827e+02 2.025957447653560228e-01
4.900000000000000000e+01 1.000000000000000000e+00 2.691920000000000002e+01 1.014429999999999978e+02 4.955669999999999931e+01 3.019610000000000127e+02 2.026154567345887225e-01
5.000000000000000000e+01 1.000000000000000000e+00 1.592290000000000028e+01 9.180490000000000350e+01 4.944429999999999836e+01 3.005419999999999732e+02 2.017481762005367274e-01
5.100000000000000000e+01 1.000000000000000000e+00 8.294209999999999638e+01 6.305030000000000001e+01 4.980910000000000082e+01 3.022320000000000277e+02 2.034386020540568107e-01
5.200000000000000000e+01 1.000000000000000000e+00 8.398009999999999309e+01 6.200630000000000308e+01 4.971220000000000283e+01 2.953990000000000009e+02 2.036283130423021115e-01
5.300000000000000000e+01 1.000000000000000000e+00 6.295739999999999981e+01 3.540909999999999780e+00 5.202100000000000080e+01 3.008149999999999977e+02 2.039212706801763475e-01
5.400000000000000000e+01 1.000000000000000000e+00 7.880819999999999936e+01 -1.280399999999999872e-01 5.107110000000000127e+01 3.028580000000000041e+02 1.921165500639941681e-01
5.500000000000000000e+01 1.000000000000000000e+00 6.007990000000000208e+01 4.798790000000000333e+01 4.823760000000000048e+01 2.995860000000000127e+02 1.968564672622062639e-01
5.600000000000000000e+01 1.000000000000000000e+00 5.939840000000000231e+01 5.168540000000000134e+01 4.763439999999999941e+01 2.988729999999999905e+02 2.022533433107316925e-01
5.700000000000000000e+01 1.000000000000000000e+00 5.920259999999999678e+01 5.026160000000000139e+01 4.776659999999999684e+01 2.975310000000000059e+02 2.004389716879123318e-01
5.800000000000000000e+01 1.000000000000000000e+00 6.030160000000000053e+01 4.935710000000000264e+01 4.807540000000000191e+01 3.081539999999999964e+02 2.004944636919120948e-01
5.900000000000000000e+01 1.000000000000000000e+00 6.863519999999999754e+01 4.494400000000000261e+01 4.911919999999999931e+01 2.995559999999999832e+02 2.000705004063174364e-01
6.000000000000000000e+01 1.000000000000000000e+00 6.979609999999999559e+01 4.409029999999999916e+01 4.929410000000000025e+01 3.035179999999999723e+02 2.013627243985560977e-01
6.100000000000000000e+01 1.000000000000000000e+00 5.882450000000000045e+01 3.203620000000000090e+01 5.019409999999999883e+01 3.010769999999999982e+02 2.036162841251737687e-01
6.200000000000000000e+01 1.000000000000000000e+00 6.373680000000000234e+01 3.161100000000000065e+01 4.988680000000000092e+01 2.985190000000000055e+02 2.027489874203747267e-01
6.300000000000000000e+01 1.000000000000000000e+00 6.363940000000000197e+01 3.019579999999999842e+01 4.995060000000000144e+01 2.975880000000000223e+02 2.028723785084790565e-01
6.400000000000000000e+01 1.000000000000000000e+00 6.478100000000000591e+01 2.934329999999999927e+01 4.981499999999999773e+01 2.972409999999999854e+02 2.030255844235204776e-01
6.500000000000000000e+01 1.000000000000000000e+00 6.258350000000000080e+01 3.242980000000000018e+01 4.998610000000000042e+01 3.007300000000000182e+02 2.031332714874988787e-01
6.600000000000000000e+01 1.000000000000000000e+00 6.129710000000000036e+01 3.182519999999999882e+01 5.006139999999999901e+01 3.026970000000000027e+02 2.031180614525523176e-01
6.700000000000000000e+01 1.000000000000000000e+00 6.009459999999999980e+01 3.266870000000000118e+01 5.010719999999999885e+01 2.966490000000000009e+02 2.029844541273276848e-01
6.800000000000000000e+01 1.000000000000000000e+00 6.896920000000000073e+01 3.401509999999999678e+01 4.942340000000000089e+01 3.009909999999999854e+02 2.027895999422988926e-01
6.900000000000000000e+01 1.000000000000000000e+00 6.905780000000000030e+01 3.548199999999999932e+01 4.942300000000000182e+01 2.997420000000000186e+02 2.022510011966403287e-01
7.000000000000000000e+01 1.000000000000000000e+00 6.789270000000000493e+01 3.629370000000000118e+01 4.931499999999999773e+01 3.014010000000000105e+02 2.023532919279332487e-01
7.100000000000000000e+01 1.000000000000000000e+00 5.103159999999999741e+01 4.747299999999999898e+01 4.854529999999999745e+01 3.012769999999999868e+02 2.026662032841032857e-01
7.200000000000000000e+01 1.000000000000000000e+00 5.349869999999999948e+01 4.694030000000000058e+01 4.846719999999999828e+01 2.928580000000000041e+02 1.973026419614155869e-01
7.300000000000000000e+01 1.000000000000000000e+00 5.213009999999999877e+01 4.648510000000000275e+01 4.855969999999999942e+01 2.973530000000000086e+02 2.006163773387018567e-01
7.400000000000000000e+01 1.000000000000000000e+00 5.429460000000000264e+01 4.456139999999999901e+01 4.879890000000000327e+01 3.068720000000000141e+02 1.926941549084757455e-01
7.500000000000000000e+01 1.000000000000000000e+00 5.461820000000000164e+01 4.596020000000000039e+01 4.858959999999999724e+01 2.990620000000000118e+02 1.941359867629668112e-01
7.600000000000000000e+01 1.000000000000000000e+00 8.147169999999999845e+01 6.779840000000000089e+01 5.011370000000000147e+01 2.979019999999999868e+02 2.039701672718315928e-01
7.700000000000000000e+01 1.000000000000000000e+00 8.085869999999999891e+01 6.502049999999999841e+01 5.002550000000000097e+01 3.034750000000000227e+02 2.036342629329428722e-01
7.800000000000000000e+01 1.000000000000000000e+00 7.339140000000000441e+01 8.230759999999999366e+01 4.999249999999999972e+01 2.984879999999999995e+02 2.009926653044180056e-01
7.900000000000000000e+01 1.000000000000000000e+00 1.101850000000000023e+02 6.967849999999999966e+01 5.069480000000000075e+01 3.035539999999999736e+02 2.015192768319609695e-01
8.000000000000000000e+01 1.000000000000000000e+00 1.111700000000000017e+02 6.865370000000000061e+01 5.106250000000000000e+01 2.977010000000000218e+02 2.017443486874673231e-01
8.100000000000000000e+01 1.000000000000000000e+00 1.056129999999999995e+02 9.294950000000000045e+01 5.023760000000000048e+01 2.972239999999999895e+02 2.021223523295679891e-01
8.200000000000000000e+01 1.000000000000000000e+00 1.059560000000000031e+02 9.433570000000000277e+01 5.008080000000000354e+01 2.967610000000000241e+02 2.029270126720919554e-01
8.300000000000000000e+01 1.000000000000000000e+00 6.205980000000000274e+00 7.863569999999999993e+01 5.021860000000000213e+01 3.001360000000000241e+02 1.985852624067460936e-01
8.400000000000000000e+01 1.000000000000000000e+00 6.196939999999999671e+00 8.152150000000000318e+01 5.027400000000000091e+01 3.024189999999999827e+02 1.998100031612399796e-01
8.500000000000000000e+01 1.000000000000000000e+00 1.411429999999999962e+00 7.856520000000000437e+01 5.127029999999999887e+01 2.967080000000000268e+02 1.928436186581192480e-01
8.600000000000000000e+01 1.000000000000000000e+00 3.835510000000000197e+00 7.716100000000000136e+01 5.085370000000000346e+01 3.001999999999999886e+02 1.985505508609147485e-01
8.700000000000000000e+01 1.000000000000000000e+00 1.366519999999999957e+00 7.431329999999999814e+01 5.163309999999999889e+01 2.949800000000000182e+02 1.939180186817119345e-01
8.800000000000000000e+01 1.000000000000000000e+00 2.637309999999999821e+00 7.499609999999999843e+01 5.131790000000000163e+01 2.977649999999999864e+02 1.983781801502941811e-01
8.900000000000000000e+01 1.000000000000000000e+00 2.713089999999999780e+00 7.640200000000000102e+01 5.130689999999999884e+01 2.996449999999999818e+02 1.980739893679690500e-01
9.000000000000000000e+01 1.000000000000000000e+00 1.590519999999999934e+00 7.713079999999999359e+01 5.159000000000000341e+01 2.993170000000000073e+02 1.913012410892994675e-01
9.100000000000000000e+01 1.000000000000000000e+00 -8.864039999999999697e-01 7.983960000000000434e+01 5.099909999999999854e+01 3.028860000000000241e+02 1.963834806347010131e-01
9.200000000000000000e+01 1.000000000000000000e+00 -4.303199999999999803e-01 8.120740000000000691e+01 5.076480000000000103e+01 2.935160000000000196e+02 1.834383209885487864e-01
9.300000000000000000e+01 1.000000000000000000e+00 2.504980000000000206e+00 8.362099999999999511e+01 5.080460000000000065e+01 2.980799999999999841e+02 1.998068595649993839e-01
9.400000000000000000e+01 1.000000000000000000e+00 1.206990000000000007e+00 8.306690000000000396e+01 5.068289999999999651e+01 3.001229999999999905e+02 1.914563610686068895e-01
9.500000000000000000e+01 1.000000000000000000e+00 2.602310000000000123e+00 8.498550000000000182e+01 5.091590000000000060e+01 2.972909999999999968e+02 1.846422304826466076e-01
9.600000000000000000e+01 1.000000000000000000e+00 8.230669999999999653e-02 8.402899999999999636e+01 5.046020000000000039e+01 2.946100000000000136e+02 1.957032874331841865e-01
9.700000000000000000e+01 1.000000000000000000e+00 1.589099999999999957e+00 8.595810000000000173e+01 5.072039999999999793e+01 3.007620000000000005e+02 1.853939217063531875e-01
9.800000000000000000e+01 1.000000000000000000e+00 3.197590000000000154e-01 8.547920000000000584e+01 5.053520000000000323e+01 3.013210000000000264e+02 1.955856143295859606e-01
9.900000000000000000e+01 1.000000000000000000e+00 1.615589999999999904e+01 7.877479999999999905e+01 4.984270000000000067e+01 2.985099999999999909e+02 2.026574998655450432e-01
1.000000000000000000e+02 1.000000000000000000e+00 8.695570000000000022e+00 7.718089999999999407e+01 4.985750000000000171e+01 2.997450000000000045e+02 2.026074749585387025e-01
1.010000000000000000e+02 1.000000000000000000e+00 1.003320000000000078e+01 7.504500000000000171e+01 4.978110000000000213e+01 2.998580000000000041e+02 2.004048434918046795e-01
1.020000000000000000e+02 1.000000000000000000e+00 1.125270000000000081e+01 7.433639999999999759e+01 4.975209999999999866e+01 3.072379999999999995e+02 2.013839219710640560e-01
1.030000000000000000e+02 1.000000000000000000e+00 1.123850000000000016e+01 7.724930000000000518e+01 4.979740000000000322e+01 2.960670000000000073e+02 2.018753122429956248e-01
1.040000000000000000e+02 1.000000000000000000e+00 1.003739999999999988e+01 7.648409999999999798e+01 4.973940000000000339e+01 2.972719999999999914e+02 2.028823302228830172e-01
1.050000000000000000e+02 1.000000000000000000e+00 1.114879999999999960e+01 8.301730000000000587e+01 4.997109999999999985e+01 3.055690000000000168e+02 2.020760715593486745e-01
1.060000000000000000e+02 1.000000000000000000e+00 9.838520000000000820e+00 8.514929999999999666e+01 4.997650000000000148e+01 2.966779999999999973e+02 2.028230425417375526e-01
1.070000000000000000e+02 1.000000000000000000e+00 9.867150000000000531e+00 8.371070000000000277e+01 4.993880000000000052e+01 3.003770000000000095e+02 2.026900918606048818e-01
1.080000000000000000e+02 1.000000000000000000e+00 8.647569999999999979e+00 8.298990000000000578e+01 5.009159999999999968e+01 3.041349999999999909e+02 2.024937959820390099e-01
1.090000000000000000e+02 1.000000000000000000e+00 1.552239999999999931e+01 3.800710000000000122e+01 5.106689999999999685e+01 2.986349999999999909e+02 2.028755533305979519e-01
1.100000000000000000e+02 1.000000000000000000e+00 1.487839999999999918e+01 4.044039999999999679e+01 5.113940000000000197e+01 2.998179999999999836e+02 2.041639310990965572e-01
1.110000000000000000e+02 1.000000000000000000e+00 1.588359999999999950e+01 3.942830000000000013e+01 5.099980000000000047e+01 3.002210000000000036e+02 2.037452087910701926e-01
1.120000000000000000e+02 1.000000000000000000e+00 1.415269999999999939e+01 3.764730000000000132e+01 5.113000000000000256e+01 3.011229999999999905e+02 2.027111720347313795e-01
1.130000000000000000e+02 1.000000000000000000e+00 1.792549999999999955e+01 3.750110000000000099e+01 5.070510000000000161e+01 3.028729999999999905e+02 2.029103736464337171e-01
1.140000000000000000e+02 1.000000000000000000e+00 1.657420000000000115e+01 3.705729999999999791e+01 5.098790000000000333e+01 2.987490000000000236e+02 2.021785760048008529e-01
1.150000000000000000e+02 1.000000000000000000e+00 1.719979999999999976e+01 3.985199999999999676e+01 5.074510000000000076e+01 3.041680000000000064e+02 2.028170907702297188e-01
1.160000000000000000e+02 1.000000000000000000e+00 1.826679999999999993e+01 3.885909999999999798e+01 5.066620000000000346e+01 3.002180000000000177e+02 2.038474754367811670e-01
1.170000000000000000e+02 1.000000000000000000e+00 2.277319999999999922e+01 6.229639999999999844e+01 5.037559999999999860e+01 2.983310000000000173e+02 2.020758538321762998e-01
1.180000000000000000e+02 1.000000000000000000e+00 2.386619999999999919e+01 6.879789999999999850e+01 4.998890000000000100e+01 3.034089999999999918e+02 2.018198998895371632e-01
1.190000000000000000e+02 1.000000000000000000e+00 2.376150000000000162e+01 7.024070000000000391e+01 4.997429999999999950e+01 2.968210000000000264e+02 2.014036132843061155e-01
1.200000000000000000e+02 1.000000000000000000e+00 2.985980000000000079e+00 6.353249999999999886e+01 5.244449999999999790e+01 2.976320000000000050e+02 1.971245088371163245e-01
1.210000000000000000e+02 1.000000000000000000e+00 3.081280000000000019e+00 6.214289999999999736e+01 5.267260000000000275e+01 2.969780000000000086e+02 1.955013950452462179e-01
1.220000000000000000e+02 1.000000000000000000e+00 4.255799999999999805e+00 6.423959999999999582e+01 5.215590000000000259e+01 3.002699999999999818e+02 2.012637733097225046e-01
1.230000000000000000e+02 1.000000000000000000e+00 5.493719999999999715e+00 6.352199999999999847e+01 5.217510000000000048e+01 3.002409999999999854e+02 2.031319409648276453e-01
1.240000000000000000e+02 1.000000000000000000e+00 1.523450000000000060e+01 6.652290000000000703e+01 5.022890000000000299e+01 3.035179999999999723e+02 2.043747186534083382e-01
1.250000000000000000e+02 1.000000000000000000e+00 1.279579999999999984e+01 6.650530000000000541e+01 5.067779999999999774e+01 2.983709999999999809e+02 2.040953554794910363e-01
1.260000000000000000e+02 1.000000000000000000e+00 1.408360000000000056e+01 6.583329999999999416e+01 5.072140000000000271e+01 2.992889999999999873e+02 2.040778380477255016e-01
1.270000000000000000e+02 1.000000000000000000e+00 1.515980000000000061e+01 6.793649999999999523e+01 4.996659999999999968e+01 2.967400000000000091e+02 2.037531179619759825e-01
1.280000000000000000e+02 1.000000000000000000e+00 1.391210000000000058e+01 6.863460000000000605e+01 5.003349999999999653e+01 2.979440000000000168e+02 2.037636107134581931e-01
1.290000000000000000e+02 1.000000000000000000e+00 1.275060000000000038e+01 6.791500000000000625e+01 5.023420000000000130e+01 2.968679999999999950e+02 2.057681508352299793e-01
1.300000000000000000e+02 1.000000000000000000e+00 3.150890000000000057e+01 6.163649999999999807e+01 5.036039999999999850e+01 3.022529999999999859e+02 1.987621313730071615e-01
1.310000000000000000e+02 1.000000000000000000e+00 3.155829999999999913e+01 6.015240000000000009e+01 5.048169999999999646e+01 2.990889999999999986e+02 1.964287963116745639e-01
1.320000000000000000e+02 1.000000000000000000e+00 -1.539549999999999974e+00 6.813890000000000668e+01 5.193529999999999802e+01 2.964590000000000032e+02 1.974743892051918359e-01
1.330000000000000000e+02 1.000000000000000000e+00 -2.436300000000000132e+00 6.913519999999999754e+01 5.143160000000000309e+01 3.003670000000000186e+02 2.006382758068989691e-01
1.340000000000000000e+02 1.000000000000000000e+00 -6.727309999999999679e-01 6.580349999999999966e+01 5.219980000000000331e+01 2.979580000000000268e+02 1.923222405648896682e-01
1.350000000000000000e+02 1.000000000000000000e+00 -1.811220000000000052e+00 6.672350000000000136e+01 5.187630000000000052e+01 3.003020000000000209e+02 1.968899829735452911e-01
1.360000000000000000e+02 1.000000000000000000e+00 -8.263460000000000250e-01 6.433029999999999404e+01 5.207690000000000197e+01 2.994730000000000132e+02 1.730700840740566349e-01
1.370000000000000000e+02 1.000000000000000000e+00 1.477289999999999992e+01 1.306429999999999936e+01 5.040709999999999980e+01 2.999809999999999945e+02 2.026453037112880273e-01
1.380000000000000000e+02 1.000000000000000000e+00 1.375079999999999991e+01 1.405610000000000070e+01 5.040339999999999776e+01 3.001490000000000009e+02 2.028714270046496626e-01
1.390000000000000000e+02 1.000000000000000000e+00 1.409259999999999913e+01 1.547119999999999962e+01 5.049029999999999774e+01 2.951270000000000095e+02 2.019966021733497763e-01
1.400000000000000000e+02 1.000000000000000000e+00 2.934880000000000155e+00 -1.015540000000000109e+00 5.138029999999999831e+01 2.916820000000000164e+02 2.029168359641940478e-01
1.410000000000000000e+02 1.000000000000000000e+00 6.969299999999999606e+00 2.383040000000000092e+01 5.064900000000000091e+01 2.953460000000000036e+02 1.992964677398343376e-01
1.420000000000000000e+02 1.000000000000000000e+00 1.189729999999999954e+01 2.265350000000000108e+01 5.059669999999999845e+01 2.973290000000000077e+02 2.009024212913698426e-01
1.430000000000000000e+02 1.000000000000000000e+00 1.793099999999999916e+00 2.351490000000000080e+01 5.051839999999999975e+01 2.997370000000000232e+02 1.936635552512743497e-01
1.440000000000000000e+02 1.000000000000000000e+00 3.266669999999999963e+00 3.329489999999999950e-01 5.139800000000000324e+01 2.975620000000000118e+02 2.023744778028860325e-01
1.450000000000000000e+02 1.000000000000000000e+00 4.527590000000000003e+00 7.962669999999999471e-01 5.094539999999999935e+01 2.983559999999999945e+02 2.038655717986311289e-01
1.460000000000000000e+02 1.000000000000000000e+00 4.805089999999999861e+01 7.435279999999999667e+00 4.925110000000000099e+01 2.953629999999999995e+02 2.043865192232751371e-01
1.470000000000000000e+02 1.000000000000000000e+00 4.713649999999999807e+01 1.113119999999999976e+02 4.752000000000000313e+01 3.023910000000000196e+02 1.993315540806741559e-01
1.480000000000000000e+02 1.000000000000000000e+00 4.594339999999999691e+01 1.121290000000000049e+02 4.739540000000000219e+01 2.959350000000000023e+02 1.888789846325458210e-01
1.490000000000000000e+02 1.000000000000000000e+00 7.475889999999999702e+01 1.112379999999999995e+02 5.219859999999999900e+01 2.990289999999999964e+02 1.978743293501891154e-01
1.500000000000000000e+02 1.000000000000000000e+00 6.619660000000000366e+01 1.115630000000000024e+02 5.346580000000000155e+01 2.982970000000000255e+02 2.017461923689224113e-01
1.510000000000000000e+02 1.000000000000000000e+00 6.854189999999999827e+01 1.099509999999999934e+02 5.405360000000000298e+01 3.001190000000000282e+02 2.049820819677307671e-01
1.520000000000000000e+02 1.000000000000000000e+00 7.000169999999999959e+01 1.118739999999999952e+02 5.359199999999999875e+01 3.068969999999999914e+02 2.015050464895329074e-01
1.530000000000000000e+02 1.000000000000000000e+00 6.867400000000000659e+01 1.113610000000000042e+02 5.385009999999999764e+01 2.981890000000000214e+02 2.017385196874056097e-01
1.540000000000000000e+02 1.000000000000000000e+00 6.804859999999999332e+01 1.072699999999999960e+02 5.323109999999999786e+01 2.994100000000000250e+02 2.027864414014212413e-01
1.550000000000000000e+02 1.000000000000000000e+00 6.966259999999999764e+01 1.090660000000000025e+02 5.361229999999999762e+01 2.953330000000000268e+02 2.023766831514043074e-01
1.560000000000000000e+02 1.000000000000000000e+00 6.938379999999999370e+01 1.077150000000000034e+02 5.331790000000000163e+01 3.009850000000000136e+02 2.035778250956783164e-01
1.570000000000000000e+02 1.000000000000000000e+00 6.470319999999999538e+01 8.883610000000000184e+01 4.941720000000000113e+01 2.985609999999999786e+02 1.968880505114170287e-01
1.580000000000000000e+02 1.000000000000000000e+00 6.608939999999999770e+01 8.925329999999999586e+01 4.953569999999999851e+01 2.980319999999999823e+02 1.985070613007892115e-01
1.590000000000000000e+02 1.000000000000000000e+00 5.444259999999999877e+01 9.734019999999999584e+01 4.930989999999999895e+01 2.945659999999999741e+02 2.039258253464451831e-01
1.600000000000000000e+02 1.000000000000000000e+00 5.445759999999999934e+01 9.875579999999999359e+01 4.946979999999999933e+01 2.941499999999999773e+02 2.017770757706050522e-01
1.610000000000000000e+02 1.000000000000000000e+00 5.567340000000000089e+01 9.947650000000000148e+01 4.953079999999999927e+01 2.978690000000000282e+02 2.014802004757214604e-01
1.620000000000000000e+02 1.000000000000000000e+00 6.888070000000000448e+01 9.005949999999999989e+01 4.975719999999999743e+01 3.001460000000000150e+02 2.002489123853132824e-01
1.630000000000000000e+02 1.000000000000000000e+00 6.680759999999999366e+01 8.681059999999999377e+01 4.969599999999999795e+01 2.997789999999999964e+02 2.015672901983028564e-01
1.640000000000000000e+02 1.000000000000000000e+00 6.783029999999999404e+01 8.581239999999999668e+01 4.973559999999999803e+01 3.000609999999999786e+02 2.005416789296649571e-01
1.650000000000000000e+02 1.000000000000000000e+00 6.919389999999999930e+01 8.621599999999999397e+01 4.984490000000000265e+01 2.991580000000000155e+02 2.007623436761656055e-01
1.660000000000000000e+02 1.000000000000000000e+00 6.955389999999999873e+01 8.760439999999999827e+01 4.991029999999999944e+01 2.951999999999999886e+02 2.005482857620307091e-01
1.670000000000000000e+02 1.000000000000000000e+00 6.713970000000000482e+01 8.823810000000000286e+01 4.971340000000000003e+01 3.004250000000000114e+02 1.992715537699672745e-01
1.680000000000000000e+02 1.000000000000000000e+00 6.854619999999999891e+01 8.863670000000000471e+01 4.979429999999999978e+01 3.020600000000000023e+02 2.004481590057198281e-01
1.690000000000000000e+02 1.000000000000000000e+00 4.156889999999999930e+01 6.044080000000000297e+01 5.003229999999999933e+01 3.012119999999999891e+02 1.990034951067778390e-01