# USER_LATT cell with dimension 1 x 1 x 1 and a = 1
      4400  atoms
         1  atom types

 0.   110.96800240000000  xlo xhi
 0.   109.20574950000000  ylo yhi
 0.   100.00000000000000  zlo zhi

Atoms

1 1     1.00000000000000     0.25000000000000    50.00000000000000
2 1     2.26100160000000     0.97803880000000    50.00000000000000
3 1     2.26100160000000     2.43411640000000    50.00000000000000
4 1     1.00000000000000     3.16215520000000    50.00000000000000
5 1     1.00000000000000     4.61822890000000    50.00000000000000
6 1     2.26100160000000     5.34626770000000    50.00000000000000
7 1     2.26100160000000     6.80234530000000    50.00000000000000
8 1     1.00000000000000     7.53038410000000    50.00000000000000
9 1     1.00000000000000     8.98646160000000    50.00000000000000
10 1     2.26100160000000     9.71450050000000    50.00000000000000
11 1     2.26100160000000    11.17057800000000    50.00000000000000
12 1     1.00000000000000    11.89861680000000    50.00000000000000
13 1     1.00000000000000    13.35469060000000    50.00000000000000
14 1     2.26100160000000    14.08272930000000    50.00000000000000
15 1     2.26100160000000    15.53880690000000    50.00000000000000
16 1     1.00000000000000    16.26684570000000    50.00000000000000
17 1     1.00000000000000    17.72291950000000    50.00000000000000
18 1     2.26100160000000    18.45095830000000    50.00000000000000
19 1     2.26100160000000    19.90703580000000    50.00000000000000
20 1     1.00000000000000    20.63507460000000    50.00000000000000
21 1     1.00000000000000    22.09114840000000    50.00000000000000
22 1     2.26100160000000    22.81918719999999    50.00000000000000
23 1     2.26100160000000    24.27526480000000    50.00000000000000
24 1     1.00000000000000    25.00330350000000    50.00000000000000
25 1     1.00000000000000    26.45937920000000    50.00000000000000
26 1     2.26100160000000    27.18741800000000    50.00000000000000
27 1     2.26100160000000    28.64349560000000    50.00000000000000
28 1     1.00000000000000    29.37153440000000    50.00000000000000
29 1     1.00000000000000    30.82761000000000    50.00000000000000
30 1     2.26100160000000    31.55564880000000    50.00000000000000
31 1     2.26100160000000    33.01172640000000    50.00000000000000
32 1     1.00000000000000    33.73976520000000    50.00000000000000
33 1     1.00000000000000    35.19583890000000    50.00000000000000
34 1     2.26100160000000    35.92387780000000    50.00000000000000
35 1     2.26100160000000    37.37995530000000    50.00000000000000
36 1     1.00000000000000    38.10799410000000    50.00000000000000
37 1     1.00000000000000    39.56406790000000    50.00000000000000
38 1     2.26100160000000    40.29210660000000    50.00000000000000
39 1     2.26100160000000    41.74818420000000    50.00000000000000
40 1     1.00000000000000    42.47622299999999    50.00000000000000
41 1     1.00000000000000    43.93229680000000    50.00000000000000
42 1     2.26100160000000    44.66033939999999    50.00000000000000
43 1     2.26100160000000    46.11641689999999    50.00000000000000
44 1     1.00000000000000    46.84445199999999    50.00000000000000
45 1     1.00000000000000    48.30052950000000    50.00000000000000
46 1     2.26100160000000    49.02856830000000    50.00000000000000
47 1     2.26100160000000    50.48464590000000    50.00000000000000
48 1     1.00000000000000    51.21268460000000    50.00000000000000
49 1     1.00000000000000    52.66875840000000    50.00000000000000
50 1     2.26100160000000    53.39679720000000    50.00000000000000
51 1     2.26100160000000    54.85287480000000    50.00000000000000
52 1     1.00000000000000    55.58091360000000    50.00000000000000
53 1     1.00000000000000    57.03698730000000    50.00000000000000
54 1     2.26100160000000    57.76502609999999    50.00000000000000
55 1     2.26100160000000    59.22110369999999    50.00000000000000
56 1     1.00000000000000    59.94914259999999    50.00000000000000
57 1     1.00000000000000    61.40522000000000    50.00000000000000
58 1     2.26100160000000    62.13325499999999    50.00000000000000
59 1     2.26100160000000    63.58933260000000    50.00000000000000
60 1     1.00000000000000    64.31737520000000    50.00000000000000
61 1     1.00000000000000    65.77344520000000    50.00000000000000
62 1     2.26100160000000    66.50148780000001    50.00000000000000
63 1     2.26100160000000    67.95756539999999    50.00000000000000
64 1     1.00000000000000    68.68560029999999    50.00000000000000
65 1     1.00000000000000    70.14167790000000    50.00000000000000
66 1     2.26100160000000    70.86972059999998    50.00000000000000
67 1     2.26100160000000    72.32579039999999    50.00000000000000
68 1     1.00000000000000    73.05383300000000    50.00000000000000
69 1     1.00000000000000    74.50990299999998    50.00000000000000
70 1     2.26100160000000    75.23794560000000    50.00000000000000
71 1     2.26100160000000    76.69402320000000    50.00000000000000
72 1     1.00000000000000    77.42205810000000    50.00000000000000
73 1     1.00000000000000    78.87813580000000    50.00000000000000
74 1     2.26100160000000    79.60617829999998    50.00000000000000
75 1     2.26100160000000    81.06225590000000    50.00000000000000
76 1     1.00000000000000    81.79029089999999    50.00000000000000
77 1     1.00000000000000    83.24636839999998    50.00000000000000
78 1     2.26100160000000    83.97441100000000    50.00000000000000
79 1     2.26100160000000    85.43048099999999    50.00000000000000
80 1     1.00000000000000    86.15852360000000    50.00000000000000
81 1     1.00000000000000    87.61459350000000    50.00000000000000
82 1     2.26100160000000    88.34263610000001    50.00000000000000
83 1     2.26100160000000    89.79871369999999    50.00000000000000
84 1     1.00000000000000    90.52674870000000    50.00000000000000
85 1     1.00000000000000    91.98282620000001    50.00000000000000
86 1     2.26100160000000    92.71086119999998    50.00000000000000
87 1     2.26100160000000    94.16694640000000    50.00000000000000
88 1     1.00000000000000    94.89498139999999    50.00000000000000
89 1     1.00000000000000    96.35105900000001    50.00000000000000
90 1     2.26100160000000    97.07909390000000    50.00000000000000
91 1     2.26100160000000    98.53517149999999    50.00000000000000
92 1     1.00000000000000    99.26321410000000    50.00000000000000
93 1     1.00000000000000   100.71928409999998    50.00000000000000
94 1     2.26100160000000   101.44732670000000    50.00000000000000
95 1     2.26100160000000   102.90340420000000    50.00000000000000
96 1     1.00000000000000   103.63143920000000    50.00000000000000
97 1     1.00000000000000   105.08751680000000    50.00000000000000
98 1     2.26100160000000   105.81555179999999    50.00000000000000
99 1     2.26100160000000   107.27163700000000    50.00000000000000
100 1     1.00000000000000   107.99967199999999    50.00000000000000
101 1     3.52199940000000     0.25000000000000    50.00000000000000
102 1     4.78300100000000     0.97803880000000    50.00000000000000
103 1     4.78300100000000     2.43411640000000    50.00000000000000
104 1     3.52199940000000     3.16215520000000    50.00000000000000
105 1     3.52199940000000     4.61822890000000    50.00000000000000
106 1     4.78300100000000     5.34626770000000    50.00000000000000
107 1     4.78300100000000     6.80234530000000    50.00000000000000
108 1     3.52199940000000     7.53038410000000    50.00000000000000
109 1     3.52199940000000     8.98646160000000    50.00000000000000
110 1     4.78300100000000     9.71450050000000    50.00000000000000
111 1     4.78300100000000    11.17057800000000    50.00000000000000
112 1     3.52199940000000    11.89861680000000    50.00000000000000
113 1     3.52199940000000    13.35469060000000    50.00000000000000
114 1     4.78300100000000    14.08272930000000    50.00000000000000
115 1     4.78300100000000    15.53880690000000    50.00000000000000
116 1     3.52199940000000    16.26684570000000    50.00000000000000
117 1     3.52199940000000    17.72291950000000    50.00000000000000
118 1     4.78300100000000    18.45095830000000    50.00000000000000
119 1     4.78300100000000    19.90703580000000    50.00000000000000
120 1     3.52199940000000    20.63507460000000    50.00000000000000
121 1     3.52199940000000    22.09114840000000    50.00000000000000
122 1     4.78300100000000    22.81918719999999    50.00000000000000
123 1     4.78300100000000    24.27526480000000    50.00000000000000
124 1     3.52199940000000    25.00330350000000    50.00000000000000
125 1     3.52199940000000    26.45937920000000    50.00000000000000
126 1     4.78300100000000    27.18741800000000    50.00000000000000
127 1     4.78300100000000    28.64349560000000    50.00000000000000
128 1     3.52199940000000    29.37153440000000    50.00000000000000
129 1     3.52199940000000    30.82761000000000    50.00000000000000
130 1     4.78300100000000    31.55564880000000    50.00000000000000
131 1     4.78300100000000    33.01172640000000    50.00000000000000
132 1     3.52199940000000    33.73976520000000    50.00000000000000
133 1     3.52199940000000    35.19583890000000    50.00000000000000
134 1     4.78300100000000    35.92387780000000    50.00000000000000
135 1     4.78300100000000    37.37995530000000    50.00000000000000
136 1     3.52199940000000    38.10799410000000    50.00000000000000
137 1     3.52199940000000    39.56406790000000    50.00000000000000
138 1     4.78300100000000    40.29210660000000    50.00000000000000
139 1     4.78300100000000    41.74818420000000    50.00000000000000
140 1     3.52199940000000    42.47622299999999    50.00000000000000
141 1     3.52199940000000    43.93229680000000    50.00000000000000
142 1     4.78300100000000    44.66033939999999    50.00000000000000
143 1     4.78300100000000    46.11641689999999    50.00000000000000
144 1     3.52199940000000    46.84445199999999    50.00000000000000
145 1     3.52199940000000    48.30052950000000    50.00000000000000
146 1     4.78300100000000    49.02856830000000    50.00000000000000
147 1     4.78300100000000    50.48464590000000    50.00000000000000
148 1     3.52199940000000    51.21268460000000    50.00000000000000
149 1     3.52199940000000    52.66875840000000    50.00000000000000
150 1     4.78300100000000    53.39679720000000    50.00000000000000
151 1     4.78300100000000    54.85287480000000    50.00000000000000
152 1     3.52199940000000    55.58091360000000    50.00000000000000
153 1     3.52199940000000    57.03698730000000    50.00000000000000
154 1     4.78300100000000    57.76502609999999    50.00000000000000
155 1     4.78300100000000    59.22110369999999    50.00000000000000
156 1     3.52199940000000    59.94914259999999    50.00000000000000
157 1     3.52199940000000    61.40522000000000    50.00000000000000
158 1     4.78300100000000    62.13325499999999    50.00000000000000
159 1     4.78300100000000    63.58933260000000    50.00000000000000
160 1     3.52199940000000    64.31737520000000    50.00000000000000
161 1     3.52199940000000    65.77344520000000    50.00000000000000
162 1     4.78300100000000    66.50148780000001    50.00000000000000
163 1     4.78300100000000    67.95756539999999    50.00000000000000
164 1     3.52199940000000    68.68560029999999    50.00000000000000
165 1     3.52199940000000    70.14167790000000    50.00000000000000
166 1     4.78300100000000    70.86972059999998    50.00000000000000
167 1     4.78300100000000    72.32579039999999    50.00000000000000
168 1     3.52199940000000    73.05383300000000    50.00000000000000
169 1     3.52199940000000    74.50990299999998    50.00000000000000
170 1     4.78300100000000    75.23794560000000    50.00000000000000
171 1     4.78300100000000    76.69402320000000    50.00000000000000
172 1     3.52199940000000    77.42205810000000    50.00000000000000
173 1     3.52199940000000    78.87813580000000    50.00000000000000
174 1     4.78300100000000    79.60617829999998    50.00000000000000
175 1     4.78300100000000    81.06225590000000    50.00000000000000
176 1     3.52199940000000    81.79029089999999    50.00000000000000
177 1     3.52199940000000    83.24636839999998    50.00000000000000
178 1     4.78300100000000    83.97441100000000    50.00000000000000
179 1     4.78300100000000    85.43048099999999    50.00000000000000
180 1     3.52199940000000    86.15852360000000    50.00000000000000
181 1     3.52199940000000    87.61459350000000    50.00000000000000
182 1     4.78300100000000    88.34263610000001    50.00000000000000
183 1     4.78300100000000    89.79871369999999    50.00000000000000
184 1     3.52199940000000    90.52674870000000    50.00000000000000
185 1     3.52199940000000    91.98282620000001    50.00000000000000
186 1     4.78300100000000    92.71086119999998    50.00000000000000
187 1     4.78300100000000    94.16694640000000    50.00000000000000
188 1     3.52199940000000    94.89498139999999    50.00000000000000
189 1     3.52199940000000    96.35105900000001    50.00000000000000
190 1     4.78300100000000    97.07909390000000    50.00000000000000
191 1     4.78300100000000    98.53517149999999    50.00000000000000
192 1     3.52199940000000    99.26321410000000    50.00000000000000
193 1     3.52199940000000   100.71928409999998    50.00000000000000
194 1     4.78300100000000   101.44732670000000    50.00000000000000
195 1     4.78300100000000   102.90340420000000    50.00000000000000
196 1     3.52199940000000   103.63143920000000    50.00000000000000
197 1     3.52199940000000   105.08751680000000    50.00000000000000
198 1     4.78300100000000   105.81555179999999    50.00000000000000
199 1     4.78300100000000   107.27163700000000    50.00000000000000
200 1     3.52199940000000   107.99967199999999    50.00000000000000
201 1     6.04399870000000     0.25000000000000    50.00000000000000
202 1     7.30500030000000     0.97803880000000    50.00000000000000
203 1     7.30500030000000     2.43411640000000    50.00000000000000
204 1     6.04399870000000     3.16215520000000    50.00000000000000
205 1     6.04399870000000     4.61822890000000    50.00000000000000
206 1     7.30500030000000     5.34626770000000    50.00000000000000
207 1     7.30500030000000     6.80234530000000    50.00000000000000
208 1     6.04399870000000     7.53038410000000    50.00000000000000
209 1     6.04399870000000     8.98646160000000    50.00000000000000
210 1     7.30500030000000     9.71450050000000    50.00000000000000
211 1     7.30500030000000    11.17057800000000    50.00000000000000
212 1     6.04399870000000    11.89861680000000    50.00000000000000
213 1     6.04399870000000    13.35469060000000    50.00000000000000
214 1     7.30500030000000    14.08272930000000    50.00000000000000
215 1     7.30500030000000    15.53880690000000    50.00000000000000
216 1     6.04399870000000    16.26684570000000    50.00000000000000
217 1     6.04399870000000    17.72291950000000    50.00000000000000
218 1     7.30500030000000    18.45095830000000    50.00000000000000
219 1     7.30500030000000    19.90703580000000    50.00000000000000
220 1     6.04399870000000    20.63507460000000    50.00000000000000
221 1     6.04399870000000    22.09114840000000    50.00000000000000
222 1     7.30500030000000    22.81918719999999    50.00000000000000
223 1     7.30500030000000    24.27526480000000    50.00000000000000
224 1     6.04399870000000    25.00330350000000    50.00000000000000
225 1     6.04399870000000    26.45937920000000    50.00000000000000
226 1     7.30500030000000    27.18741800000000    50.00000000000000
227 1     7.30500030000000    28.64349560000000    50.00000000000000
228 1     6.04399870000000    29.37153440000000    50.00000000000000
229 1     6.04399870000000    30.82761000000000    50.00000000000000
230 1     7.30500030000000    31.55564880000000    50.00000000000000
231 1     7.30500030000000    33.01172640000000    50.00000000000000
232 1     6.04399870000000    33.73976520000000    50.00000000000000
233 1     6.04399870000000    35.19583890000000    50.00000000000000
234 1     7.30500030000000    35.92387780000000    50.00000000000000
235 1     7.30500030000000    37.37995530000000    50.00000000000000
236 1     6.04399870000000    38.10799410000000    50.00000000000000
237 1     6.04399870000000    39.56406790000000    50.00000000000000
238 1     7.30500030000000    40.29210660000000    50.00000000000000
239 1     7.30500030000000    41.74818420000000    50.00000000000000
240 1     6.04399870000000    42.47622299999999    50.00000000000000
241 1     6.04399870000000    43.93229680000000    50.00000000000000
242 1     7.30500030000000    44.66033939999999    50.00000000000000
243 1     7.30500030000000    46.11641689999999    50.00000000000000
244 1     6.04399870000000    46.84445199999999    50.00000000000000
245 1     6.04399870000000    48.30052950000000    50.00000000000000
246 1     7.30500030000000    49.02856830000000    50.00000000000000
247 1     7.30500030000000    50.48464590000000    50.00000000000000
248 1     6.04399870000000    51.21268460000000    50.00000000000000
249 1     6.04399870000000    52.66875840000000    50.00000000000000
250 1     7.30500030000000    53.39679720000000    50.00000000000000
251 1     7.30500030000000    54.85287480000000    50.00000000000000
252 1     6.04399870000000    55.58091360000000    50.00000000000000
253 1     6.04399870000000    57.03698730000000    50.00000000000000
254 1     7.30500030000000    57.76502609999999    50.00000000000000
255 1     7.30500030000000    59.22110369999999    50.00000000000000
256 1     6.04399870000000    59.94914259999999    50.00000000000000
257 1     6.04399870000000    61.40522000000000    50.00000000000000
258 1     7.30500030000000    62.13325499999999    50.00000000000000
259 1     7.30500030000000    63.58933260000000    50.00000000000000
260 1     6.04399870000000    64.31737520000000    50.00000000000000
261 1     6.04399870000000    65.77344520000000    50.00000000000000
262 1     7.30500030000000    66.50148780000001    50.00000000000000
263 1     7.30500030000000    67.95756539999999    50.00000000000000
264 1     6.04399870000000    68.68560029999999    50.00000000000000
265 1     6.04399870000000    70.14167790000000    50.00000000000000
266 1     7.30500030000000    70.86972059999998    50.00000000000000
267 1     7.30500030000000    72.32579039999999    50.00000000000000
268 1     6.04399870000000    73.05383300000000    50.00000000000000
269 1     6.04399870000000    74.50990299999998    50.00000000000000
270 1     7.30500030000000    75.23794560000000    50.00000000000000
271 1     7.30500030000000    76.69402320000000    50.00000000000000
272 1     6.04399870000000    77.42205810000000    50.00000000000000
273 1     6.04399870000000    78.87813580000000    50.00000000000000
274 1     7.30500030000000    79.60617829999998    50.00000000000000
275 1     7.30500030000000    81.06225590000000    50.00000000000000
276 1     6.04399870000000    81.79029089999999    50.00000000000000
277 1     6.04399870000000    83.24636839999998    50.00000000000000
278 1     7.30500030000000    83.97441100000000    50.00000000000000
279 1     7.30500030000000    85.43048099999999    50.00000000000000
280 1     6.04399870000000    86.15852360000000    50.00000000000000
281 1     6.04399870000000    87.61459350000000    50.00000000000000
282 1     7.30500030000000    88.34263610000001    50.00000000000000
283 1     7.30500030000000    89.79871369999999    50.00000000000000
284 1     6.04399870000000    90.52674870000000    50.00000000000000
285 1     6.04399870000000    91.98282620000001    50.00000000000000
286 1     7.30500030000000    92.71086119999998    50.00000000000000
287 1     7.30500030000000    94.16694640000000    50.00000000000000
288 1     6.04399870000000    94.89498139999999    50.00000000000000
289 1     6.04399870000000    96.35105900000001    50.00000000000000
290 1     7.30500030000000    97.07909390000000    50.00000000000000
291 1     7.30500030000000    98.53517149999999    50.00000000000000
292 1     6.04399870000000    99.26321410000000    50.00000000000000
293 1     6.04399870000000   100.71928409999998    50.00000000000000
294 1     7.30500030000000   101.44732670000000    50.00000000000000
295 1     7.30500030000000   102.90340420000000    50.00000000000000
296 1     6.04399870000000   103.63143920000000    50.00000000000000
297 1     6.04399870000000   105.08751680000000    50.00000000000000
298 1     7.30500030000000   105.81555179999999    50.00000000000000
299 1     7.30500030000000   107.27163700000000    50.00000000000000
300 1     6.04399870000000   107.99967199999999    50.00000000000000
301 1     8.56600190000000     0.25000000000000    50.00000000000000
302 1     9.82700350000000     0.97803880000000    50.00000000000000
303 1     9.82700350000000     2.43411640000000    50.00000000000000
304 1     8.56600190000000     3.16215520000000    50.00000000000000
305 1     8.56600190000000     4.61822890000000    50.00000000000000
306 1     9.82700350000000     5.34626770000000    50.00000000000000
307 1     9.82700350000000     6.80234530000000    50.00000000000000
308 1     8.56600190000000     7.53038410000000    50.00000000000000
309 1     8.56600190000000     8.98646160000000    50.00000000000000
310 1     9.82700350000000     9.71450050000000    50.00000000000000
311 1     9.82700350000000    11.17057800000000    50.00000000000000
312 1     8.56600190000000    11.89861680000000    50.00000000000000
313 1     8.56600190000000    13.35469060000000    50.00000000000000
314 1     9.82700350000000    14.08272930000000    50.00000000000000
315 1     9.82700350000000    15.53880690000000    50.00000000000000
316 1     8.56600190000000    16.26684570000000    50.00000000000000
317 1     8.56600190000000    17.72291950000000    50.00000000000000
318 1     9.82700350000000    18.45095830000000    50.00000000000000
319 1     9.82700350000000    19.90703580000000    50.00000000000000
320 1     8.56600190000000    20.63507460000000    50.00000000000000
321 1     8.56600190000000    22.09114840000000    50.00000000000000
322 1     9.82700350000000    22.81918719999999    50.00000000000000
323 1     9.82700350000000    24.27526480000000    50.00000000000000
324 1     8.56600190000000    25.00330350000000    50.00000000000000
325 1     8.56600190000000    26.45937920000000    50.00000000000000
326 1     9.82700350000000    27.18741800000000    50.00000000000000
327 1     9.82700350000000    28.64349560000000    50.00000000000000
328 1     8.56600190000000    29.37153440000000    50.00000000000000
329 1     8.56600190000000    30.82761000000000    50.00000000000000
330 1     9.82700350000000    31.55564880000000    50.00000000000000
331 1     9.82700350000000    33.01172640000000    50.00000000000000
332 1     8.56600190000000    33.73976520000000    50.00000000000000
333 1     8.56600190000000    35.19583890000000    50.00000000000000
334 1     9.82700350000000    35.92387780000000    50.00000000000000
335 1     9.82700350000000    37.37995530000000    50.00000000000000
336 1     8.56600190000000    38.10799410000000    50.00000000000000
337 1     8.56600190000000    39.56406790000000    50.00000000000000
338 1     9.82700350000000    40.29210660000000    50.00000000000000
339 1     9.82700350000000    41.74818420000000    50.00000000000000
340 1     8.56600190000000    42.47622299999999    50.00000000000000
341 1     8.56600190000000    43.93229680000000    50.00000000000000
342 1     9.82700350000000    44.66033939999999    50.00000000000000
343 1     9.82700350000000    46.11641689999999    50.00000000000000
344 1     8.56600190000000    46.84445199999999    50.00000000000000
345 1     8.56600190000000    48.30052950000000    50.00000000000000
346 1     9.82700350000000    49.02856830000000    50.00000000000000
347 1     9.82700350000000    50.48464590000000    50.00000000000000
348 1     8.56600190000000    51.21268460000000    50.00000000000000
349 1     8.56600190000000    52.66875840000000    50.00000000000000
350 1     9.82700350000000    53.39679720000000    50.00000000000000
351 1     9.82700350000000    54.85287480000000    50.00000000000000
352 1     8.56600190000000    55.58091360000000    50.00000000000000
353 1     8.56600190000000    57.03698730000000    50.00000000000000
354 1     9.82700350000000    57.76502609999999    50.00000000000000
355 1     9.82700350000000    59.22110369999999    50.00000000000000
356 1     8.56600190000000    59.94914259999999    50.00000000000000
357 1     8.56600190000000    61.40522000000000    50.00000000000000
358 1     9.82700350000000    62.13325499999999    50.00000000000000
359 1     9.82700350000000    63.58933260000000    50.00000000000000
360 1     8.56600190000000    64.31737520000000    50.00000000000000
361 1     8.56600190000000    65.77344520000000    50.00000000000000
362 1     9.82700350000000    66.50148780000001    50.00000000000000
363 1     9.82700350000000    67.95756539999999    50.00000000000000
364 1     8.56600190000000    68.68560029999999    50.00000000000000
365 1     8.56600190000000    70.14167790000000    50.00000000000000
366 1     9.82700350000000    70.86972059999998    50.00000000000000
367 1     9.82700350000000    72.32579039999999    50.00000000000000
368 1     8.56600190000000    73.05383300000000    50.00000000000000
369 1     8.56600190000000    74.50990299999998    50.00000000000000
370 1     9.82700350000000    75.23794560000000    50.00000000000000
371 1     9.82700350000000    76.69402320000000    50.00000000000000
372 1     8.56600190000000    77.42205810000000    50.00000000000000
373 1     8.56600190000000    78.87813580000000    50.00000000000000
374 1     9.82700350000000    79.60617829999998    50.00000000000000
375 1     9.82700350000000    81.06225590000000    50.00000000000000
376 1     8.56600190000000    81.79029089999999    50.00000000000000
377 1     8.56600190000000    83.24636839999998    50.00000000000000
378 1     9.82700350000000    83.97441100000000    50.00000000000000
379 1     9.82700350000000    85.43048099999999    50.00000000000000
380 1     8.56600190000000    86.15852360000000    50.00000000000000
381 1     8.56600190000000    87.61459350000000    50.00000000000000
382 1     9.82700350000000    88.34263610000001    50.00000000000000
383 1     9.82700350000000    89.79871369999999    50.00000000000000
384 1     8.56600190000000    90.52674870000000    50.00000000000000
385 1     8.56600190000000    91.98282620000001    50.00000000000000
386 1     9.82700350000000    92.71086119999998    50.00000000000000
387 1     9.82700350000000    94.16694640000000    50.00000000000000
388 1     8.56600190000000    94.89498139999999    50.00000000000000
389 1     8.56600190000000    96.35105900000001    50.00000000000000
390 1     9.82700350000000    97.07909390000000    50.00000000000000
391 1     9.82700350000000    98.53517149999999    50.00000000000000
392 1     8.56600190000000    99.26321410000000    50.00000000000000
393 1     8.56600190000000   100.71928409999998    50.00000000000000
394 1     9.82700350000000   101.44732670000000    50.00000000000000
395 1     9.82700350000000   102.90340420000000    50.00000000000000
396 1     8.56600190000000   103.63143920000000    50.00000000000000
397 1     8.56600190000000   105.08751680000000    50.00000000000000
398 1     9.82700350000000   105.81555179999999    50.00000000000000
399 1     9.82700350000000   107.27163700000000    50.00000000000000
400 1     8.56600190000000   107.99967199999999    50.00000000000000
401 1    11.08800130000000     0.25000000000000    50.00000000000000
402 1    12.34900290000000     0.97803880000000    50.00000000000000
403 1    12.34900290000000     2.43411640000000    50.00000000000000
404 1    11.08800130000000     3.16215520000000    50.00000000000000
405 1    11.08800130000000     4.61822890000000    50.00000000000000
406 1    12.34900290000000     5.34626770000000    50.00000000000000
407 1    12.34900290000000     6.80234530000000    50.00000000000000
408 1    11.08800130000000     7.53038410000000    50.00000000000000
409 1    11.08800130000000     8.98646160000000    50.00000000000000
410 1    12.34900290000000     9.71450050000000    50.00000000000000
411 1    12.34900290000000    11.17057800000000    50.00000000000000
412 1    11.08800130000000    11.89861680000000    50.00000000000000
413 1    11.08800130000000    13.35469060000000    50.00000000000000
414 1    12.34900290000000    14.08272930000000    50.00000000000000
415 1    12.34900290000000    15.53880690000000    50.00000000000000
416 1    11.08800130000000    16.26684570000000    50.00000000000000
417 1    11.08800130000000    17.72291950000000    50.00000000000000
418 1    12.34900290000000    18.45095830000000    50.00000000000000
419 1    12.34900290000000    19.90703580000000    50.00000000000000
420 1    11.08800130000000    20.63507460000000    50.00000000000000
421 1    11.08800130000000    22.09114840000000    50.00000000000000
422 1    12.34900290000000    22.81918719999999    50.00000000000000
423 1    12.34900290000000    24.27526480000000    50.00000000000000
424 1    11.08800130000000    25.00330350000000    50.00000000000000
425 1    11.08800130000000    26.45937920000000    50.00000000000000
426 1    12.34900290000000    27.18741800000000    50.00000000000000
427 1    12.34900290000000    28.64349560000000    50.00000000000000
428 1    11.08800130000000    29.37153440000000    50.00000000000000
429 1    11.08800130000000    30.82761000000000    50.00000000000000
430 1    12.34900290000000    31.55564880000000    50.00000000000000
431 1    12.34900290000000    33.01172640000000    50.00000000000000
432 1    11.08800130000000    33.73976520000000    50.00000000000000
433 1    11.08800130000000    35.19583890000000    50.00000000000000