ITEM: TIMESTEP
7550000
ITEM: NUMBER OF ATOMS
4400
ITEM: BOX BOUNDS pp pp pp
6.5943074095061971e-01 1.1030857165904861e+02
6.4890142869593304e-01 1.0855684807130388e+02
0.0000000000000000e+00 1.0000000000000000e+02
ITEM: ATOMS id type x y z temp	energy
1.000000000000000000e+00 1.000000000000000000e+00 1.590950000000000086e+00 8.864140000000000352e-01 4.974000000000000199e+01 3.002620000000000005e+02 2.130027371724308727e-01
2.000000000000000000e+00 1.000000000000000000e+00 2.859700000000000131e+00 1.613089999999999913e+00 4.974410000000000309e+01 3.002599999999999909e+02 2.130975525458415620e-01
3.000000000000000000e+00 1.000000000000000000e+00 2.834029999999999827e+00 3.084010000000000140e+00 4.958630000000000138e+01 2.956200000000000045e+02 2.129481954658142828e-01
4.000000000000000000e+00 1.000000000000000000e+00 1.594789999999999930e+00 3.799259999999999859e+00 4.966449999999999676e+01 2.940240000000000009e+02 2.125530782779515848e-01
5.000000000000000000e+00 1.000000000000000000e+00 1.583490000000000064e+00 5.203829999999999956e+00 4.967569999999999908e+01 2.996850000000000023e+02 2.128773251689401458e-01
6.000000000000000000e+00 1.000000000000000000e+00 2.816720000000000113e+00 5.924330000000000318e+00 4.968639999999999901e+01 2.939230000000000018e+02 2.136732464105343676e-01
7.000000000000000000e+00 1.000000000000000000e+00 2.833889999999999798e+00 7.372489999999999988e+00 4.966129999999999711e+01 2.955059999999999718e+02 2.139721655724926563e-01
8.000000000000000000e+00 1.000000000000000000e+00 1.623250000000000082e+00 8.090049999999999741e+00 4.982849999999999824e+01 2.944660000000000082e+02 2.129656164535800589e-01
9.000000000000000000e+00 1.000000000000000000e+00 1.634439999999999893e+00 9.534800000000000608e+00 4.979350000000000165e+01 2.924289999999999736e+02 2.132131735877817735e-01
1.000000000000000000e+01 1.000000000000000000e+00 2.889609999999999790e+00 1.022070000000000078e+01 4.972820000000000107e+01 2.945380000000000109e+02 2.123706621818740869e-01
1.100000000000000000e+01 1.000000000000000000e+00 2.865940000000000154e+00 1.168609999999999971e+01 4.972979999999999734e+01 3.007839999999999918e+02 2.126900793444505000e-01
1.200000000000000000e+01 1.000000000000000000e+00 1.621170000000000000e+00 1.241830000000000034e+01 4.964970000000000283e+01 2.996659999999999968e+02 2.129543121498192193e-01
1.300000000000000000e+01 1.000000000000000000e+00 1.705189999999999984e+00 1.384890000000000043e+01 4.969530000000000314e+01 2.910480000000000018e+02 2.120443800356383024e-01
1.400000000000000000e+01 1.000000000000000000e+00 2.893940000000000179e+00 1.455860000000000021e+01 4.957800000000000296e+01 3.012799999999999727e+02 2.127287877992239118e-01
1.500000000000000000e+01 1.000000000000000000e+00 2.894179999999999975e+00 1.599200000000000088e+01 4.947800000000000153e+01 2.997919999999999732e+02 2.124906047497047146e-01
1.600000000000000000e+01 1.000000000000000000e+00 1.681259999999999977e+00 1.671440000000000126e+01 4.964410000000000167e+01 2.981669999999999732e+02 2.118380330014854318e-01
1.700000000000000000e+01 1.000000000000000000e+00 1.670279999999999987e+00 1.815139999999999887e+01 4.955539999999999878e+01 2.944660000000000082e+02 2.115386790795011351e-01
1.800000000000000000e+01 1.000000000000000000e+00 2.890940000000000065e+00 1.886039999999999850e+01 4.932820000000000249e+01 2.922780000000000200e+02 2.120825825579341906e-01
1.900000000000000000e+01 1.000000000000000000e+00 2.849000000000000199e+00 2.028729999999999833e+01 4.934920000000000329e+01 2.966410000000000196e+02 2.124877249676362934e-01
2.000000000000000000e+01 1.000000000000000000e+00 1.625140000000000029e+00 2.104960000000000164e+01 4.940599999999999881e+01 2.943539999999999850e+02 2.125491405454669191e-01
2.100000000000000000e+01 1.000000000000000000e+00 1.613469999999999960e+00 2.246829999999999927e+01 4.926769999999999783e+01 3.006580000000000155e+02 2.122520761387834687e-01
2.200000000000000000e+01 1.000000000000000000e+00 2.867500000000000160e+00 2.318090000000000117e+01 4.924199999999999733e+01 2.958489999999999895e+02 2.121896640920961086e-01
2.300000000000000000e+01 1.000000000000000000e+00 2.878029999999999866e+00 2.461309999999999931e+01 4.916910000000000025e+01 3.014230000000000018e+02 2.128335275447700292e-01
2.400000000000000000e+01 1.000000000000000000e+00 1.634679999999999911e+00 2.531899999999999906e+01 4.906869999999999976e+01 2.959540000000000077e+02 2.127647974040351164e-01
2.500000000000000000e+01 1.000000000000000000e+00 1.649890000000000079e+00 2.678620000000000090e+01 4.912989999999999924e+01 2.985029999999999859e+02 2.128618295008633532e-01
2.600000000000000000e+01 1.000000000000000000e+00 2.900360000000000049e+00 2.749159999999999826e+01 4.919120000000000203e+01 2.929739999999999895e+02 2.114320963568743772e-01
2.700000000000000000e+01 1.000000000000000000e+00 2.927630000000000177e+00 2.891300000000000026e+01 4.934080000000000155e+01 2.964929999999999950e+02 2.128010405033139707e-01
2.800000000000000000e+01 1.000000000000000000e+00 1.638870000000000049e+00 2.961759999999999948e+01 4.942669999999999675e+01 2.956669999999999732e+02 2.134005318450410693e-01
2.900000000000000000e+01 1.000000000000000000e+00 1.644390000000000018e+00 3.110660000000000025e+01 4.939159999999999684e+01 2.972579999999999814e+02 2.128073775736159801e-01
3.000000000000000000e+01 1.000000000000000000e+00 2.907890000000000086e+00 3.180399999999999849e+01 4.933670000000000044e+01 2.979409999999999741e+02 2.122989080940504980e-01
3.100000000000000000e+01 1.000000000000000000e+00 2.919659999999999922e+00 3.323149999999999693e+01 4.926689999999999969e+01 2.957549999999999955e+02 2.121231365129465085e-01
3.200000000000000000e+01 1.000000000000000000e+00 1.645680000000000032e+00 3.396999999999999886e+01 4.916579999999999728e+01 2.974139999999999873e+02 2.127156440857529696e-01
3.300000000000000000e+01 1.000000000000000000e+00 1.672860000000000014e+00 3.542069999999999652e+01 4.899869999999999948e+01 2.972959999999999923e+02 2.136295527071202793e-01
3.400000000000000000e+01 1.000000000000000000e+00 2.907770000000000188e+00 3.616490000000000293e+01 4.907070000000000221e+01 2.981940000000000168e+02 2.127926984022275592e-01
3.500000000000000000e+01 1.000000000000000000e+00 2.938450000000000006e+00 3.758469999999999800e+01 4.896620000000000061e+01 2.984879999999999995e+02 2.128109265240854531e-01
3.600000000000000000e+01 1.000000000000000000e+00 1.680339999999999945e+00 3.826469999999999771e+01 4.884629999999999939e+01 2.926850000000000023e+02 2.123920609433500861e-01
3.700000000000000000e+01 1.000000000000000000e+00 1.668919999999999959e+00 3.972860000000000014e+01 4.887980000000000302e+01 2.982549999999999955e+02 2.131993820583760468e-01
3.800000000000000000e+01 1.000000000000000000e+00 2.909959999999999880e+00 4.048369999999999891e+01 4.879789999999999850e+01 3.037610000000000241e+02 2.132645178771617744e-01
3.900000000000000000e+01 1.000000000000000000e+00 2.922099999999999920e+00 4.192219999999999658e+01 4.871000000000000085e+01 2.921150000000000091e+02 2.122701276025350525e-01
4.000000000000000000e+01 1.000000000000000000e+00 1.637569999999999970e+00 4.260240000000000293e+01 4.877380000000000138e+01 2.979870000000000232e+02 2.119541254442597611e-01
4.100000000000000000e+01 1.000000000000000000e+00 1.645979999999999999e+00 4.401959999999999695e+01 4.872379999999999711e+01 2.989209999999999923e+02 2.124694465163635693e-01
4.200000000000000000e+01 1.000000000000000000e+00 2.870620000000000172e+00 4.475509999999999877e+01 4.863589999999999947e+01 2.958149999999999977e+02 2.129652441757295678e-01
4.300000000000000000e+01 1.000000000000000000e+00 2.871030000000000193e+00 4.621179999999999666e+01 4.860349999999999682e+01 2.963929999999999723e+02 2.123646396334239739e-01
4.400000000000000000e+01 1.000000000000000000e+00 1.637569999999999970e+00 4.689209999999999923e+01 4.844250000000000256e+01 2.940199999999999818e+02 2.122846727920386645e-01
4.500000000000000000e+01 1.000000000000000000e+00 1.635059999999999958e+00 4.835770000000000124e+01 4.843299999999999983e+01 2.972409999999999854e+02 2.127085309496149212e-01
4.600000000000000000e+01 1.000000000000000000e+00 2.946060000000000123e+00 4.911769999999999925e+01 4.850280000000000058e+01 2.986499999999999773e+02 2.122893662123139513e-01
4.700000000000000000e+01 1.000000000000000000e+00 2.910109999999999975e+00 5.051089999999999947e+01 4.847809999999999775e+01 2.966250000000000000e+02 2.127186508281649902e-01
4.800000000000000000e+01 1.000000000000000000e+00 1.676539999999999919e+00 5.120389999999999731e+01 4.848020000000000351e+01 2.984060000000000059e+02 2.137145337485268359e-01
4.900000000000000000e+01 1.000000000000000000e+00 1.650060000000000082e+00 5.266299999999999670e+01 4.845029999999999859e+01 2.949449999999999932e+02 2.125633346801347467e-01
5.000000000000000000e+01 1.000000000000000000e+00 2.913559999999999928e+00 5.337720000000000198e+01 4.849889999999999901e+01 2.993539999999999850e+02 2.125538517151571716e-01
5.100000000000000000e+01 1.000000000000000000e+00 2.926979999999999915e+00 5.477729999999999677e+01 4.859839999999999804e+01 2.931999999999999886e+02 2.128216508656189387e-01
5.200000000000000000e+01 1.000000000000000000e+00 1.671680000000000055e+00 5.555700000000000216e+01 4.858550000000000324e+01 2.975840000000000032e+02 2.117314273799790203e-01
5.300000000000000000e+01 1.000000000000000000e+00 1.660339999999999927e+00 5.698460000000000036e+01 4.855120000000000147e+01 2.981390000000000100e+02 2.116674852421401021e-01
5.400000000000000000e+01 1.000000000000000000e+00 2.902569999999999872e+00 5.772440000000000282e+01 4.847240000000000038e+01 3.004649999999999750e+02 2.127254418704070393e-01
5.500000000000000000e+01 1.000000000000000000e+00 2.859389999999999876e+00 5.915200000000000102e+01 4.840299999999999869e+01 2.997649999999999864e+02 2.124622794708751483e-01
5.600000000000000000e+01 1.000000000000000000e+00 1.640320000000000000e+00 5.990740000000000265e+01 4.838020000000000209e+01 2.954370000000000118e+02 2.113460154155058224e-01
5.700000000000000000e+01 1.000000000000000000e+00 1.644959999999999978e+00 6.130069999999999908e+01 4.830400000000000205e+01 3.017450000000000045e+02 2.120220803740629767e-01
5.800000000000000000e+01 1.000000000000000000e+00 2.884220000000000006e+00 6.203920000000000101e+01 4.836860000000000070e+01 2.950629999999999882e+02 2.119061485317914328e-01
5.900000000000000000e+01 1.000000000000000000e+00 2.878010000000000179e+00 6.345069999999999766e+01 4.836679999999999779e+01 2.997099999999999795e+02 2.128613091593497819e-01
6.000000000000000000e+01 1.000000000000000000e+00 1.611280000000000046e+00 6.416020000000000323e+01 4.846820000000000306e+01 2.988380000000000223e+02 2.136537579986277080e-01
6.100000000000000000e+01 1.000000000000000000e+00 1.643669999999999964e+00 6.566540000000000532e+01 4.857249999999999801e+01 2.987029999999999745e+02 2.138967075132471307e-01
6.200000000000000000e+01 1.000000000000000000e+00 2.854330000000000034e+00 6.635670000000000357e+01 4.866490000000000293e+01 2.977320000000000277e+02 2.131368420052054125e-01
6.300000000000000000e+01 1.000000000000000000e+00 2.914600000000000080e+00 6.779059999999999775e+01 4.877210000000000178e+01 2.961829999999999927e+02 2.130965834009915516e-01
6.400000000000000000e+01 1.000000000000000000e+00 1.661180000000000101e+00 6.854640000000000555e+01 4.879879999999999995e+01 2.997789999999999964e+02 2.127891121073571257e-01
6.500000000000000000e+01 1.000000000000000000e+00 1.624970000000000026e+00 6.997469999999999857e+01 4.894579999999999842e+01 2.939049999999999727e+02 2.121902612579416869e-01
6.600000000000000000e+01 1.000000000000000000e+00 2.880700000000000038e+00 7.066179999999999950e+01 4.904379999999999740e+01 2.985219999999999914e+02 2.130243593677161040e-01
6.700000000000000000e+01 1.000000000000000000e+00 2.851570000000000160e+00 7.210689999999999600e+01 4.925580000000000069e+01 2.959169999999999732e+02 2.127127264676538509e-01
6.800000000000000000e+01 1.000000000000000000e+00 1.632500000000000062e+00 7.281050000000000466e+01 4.938810000000000144e+01 2.971250000000000000e+02 2.118471569799192378e-01
6.900000000000000000e+01 1.000000000000000000e+00 1.654400000000000093e+00 7.424670000000000414e+01 4.962380000000000280e+01 2.984859999999999900e+02 2.125552605734671863e-01
7.000000000000000000e+01 1.000000000000000000e+00 2.895729999999999915e+00 7.500979999999999848e+01 4.976019999999999754e+01 2.986120000000000232e+02 2.119135736452333885e-01
7.100000000000000000e+01 1.000000000000000000e+00 2.853930000000000078e+00 7.642050000000000409e+01 4.985750000000000171e+01 2.952379999999999995e+02 2.113837984587751684e-01
7.200000000000000000e+01 1.000000000000000000e+00 1.595050000000000079e+00 7.711060000000000514e+01 4.990740000000000265e+01 2.976630000000000109e+02 2.127615972661483223e-01
7.300000000000000000e+01 1.000000000000000000e+00 1.609229999999999938e+00 7.857989999999999498e+01 4.994330000000000069e+01 2.996850000000000023e+02 2.129401238144368325e-01
7.400000000000000000e+01 1.000000000000000000e+00 2.935449999999999893e+00 7.931380000000000052e+01 4.988040000000000163e+01 2.956050000000000182e+02 2.120044056679966926e-01
7.500000000000000000e+01 1.000000000000000000e+00 2.918950000000000156e+00 8.079229999999999734e+01 4.981860000000000355e+01 3.013600000000000136e+02 2.123813292812744002e-01
7.600000000000000000e+01 1.000000000000000000e+00 1.642439999999999900e+00 8.146890000000000498e+01 4.986489999999999867e+01 2.953419999999999845e+02 2.117743360457965962e-01
7.700000000000000000e+01 1.000000000000000000e+00 1.635590000000000099e+00 8.292759999999999820e+01 4.979370000000000118e+01 2.990779999999999745e+02 2.125029775063811410e-01
7.800000000000000000e+01 1.000000000000000000e+00 2.873390000000000111e+00 8.363219999999999743e+01 4.975789999999999935e+01 2.981170000000000186e+02 2.126022292728833030e-01
7.900000000000000000e+01 1.000000000000000000e+00 2.915449999999999875e+00 8.510370000000000346e+01 4.976230000000000331e+01 2.968709999999999809e+02 2.124603491517183529e-01
8.000000000000000000e+01 1.000000000000000000e+00 1.618270000000000097e+00 8.580079999999999529e+01 4.977409999999999712e+01 2.953330000000000268e+02 2.130391729846402571e-01
8.100000000000000000e+01 1.000000000000000000e+00 1.605599999999999916e+00 8.725790000000000646e+01 4.991400000000000148e+01 2.984460000000000264e+02 2.133211891507207913e-01
8.200000000000000000e+01 1.000000000000000000e+00 2.888949999999999907e+00 8.790449999999999875e+01 5.003640000000000043e+01 2.985500000000000114e+02 2.121183666728602979e-01
8.300000000000000000e+01 1.000000000000000000e+00 2.864310000000000134e+00 8.935550000000000637e+01 5.011390000000000100e+01 2.985710000000000264e+02 2.125759826847091472e-01
8.400000000000000000e+01 1.000000000000000000e+00 1.642579999999999929e+00 9.005259999999999820e+01 4.998720000000000141e+01 2.952309999999999945e+02 2.132121729007331046e-01
8.500000000000000000e+01 1.000000000000000000e+00 1.662330000000000085e+00 9.149790000000000134e+01 4.996889999999999787e+01 2.926539999999999964e+02 2.131790478633183994e-01
8.600000000000000000e+01 1.000000000000000000e+00 2.882359999999999811e+00 9.218659999999999854e+01 5.008220000000000027e+01 2.961139999999999759e+02 2.123681561863993150e-01
8.700000000000000000e+01 1.000000000000000000e+00 2.906499999999999861e+00 9.364230000000000587e+01 5.006680000000000064e+01 2.998500000000000227e+02 2.126548742952111271e-01
8.800000000000000000e+01 1.000000000000000000e+00 1.650660000000000016e+00 9.430910000000000082e+01 4.997420000000000329e+01 2.974039999999999964e+02 2.129687251443059537e-01
8.900000000000000000e+01 1.000000000000000000e+00 1.636910000000000087e+00 9.576579999999999870e+01 4.993919999999999959e+01 2.954870000000000232e+02 2.132533548881988261e-01
9.000000000000000000e+01 1.000000000000000000e+00 2.862429999999999808e+00 9.649060000000000059e+01 5.003320000000000078e+01 2.945219999999999914e+02 2.130453678414895580e-01
9.100000000000000000e+01 1.000000000000000000e+00 2.888850000000000140e+00 9.796840000000000259e+01 5.010029999999999717e+01 2.933509999999999991e+02 2.131084669382510843e-01
9.200000000000000000e+01 1.000000000000000000e+00 1.616579999999999906e+00 9.867520000000000380e+01 4.998680000000000234e+01 2.937980000000000018e+02 2.133134298837182641e-01
9.300000000000000000e+01 1.000000000000000000e+00 1.652349999999999985e+00 1.001410000000000053e+02 4.996809999999999974e+01 2.958559999999999945e+02 2.135312778235421427e-01
9.400000000000000000e+01 1.000000000000000000e+00 2.923630000000000173e+00 1.008469999999999942e+02 5.002479999999999905e+01 2.986519999999999868e+02 2.134661116185943008e-01
9.500000000000000000e+01 1.000000000000000000e+00 2.858800000000000008e+00 1.022590000000000003e+02 4.997729999999999961e+01 3.021109999999999900e+02 2.124936360629298415e-01
9.600000000000000000e+01 1.000000000000000000e+00 1.651669999999999972e+00 1.029980000000000047e+02 4.994069999999999965e+01 2.967149999999999750e+02 2.125537190039050173e-01
9.700000000000000000e+01 1.000000000000000000e+00 1.642320000000000002e+00 1.044449999999999932e+02 4.986990000000000123e+01 2.922459999999999809e+02 2.131854628913485428e-01
9.800000000000000000e+01 1.000000000000000000e+00 2.879370000000000207e+00 1.051670000000000016e+02 4.986220000000000141e+01 2.984820000000000277e+02 2.133740045342456260e-01
9.900000000000000000e+01 1.000000000000000000e+00 2.850699999999999790e+00 1.066340000000000003e+02 4.991060000000000230e+01 2.928170000000000073e+02 2.132270512817310837e-01
1.000000000000000000e+02 1.000000000000000000e+00 1.599960000000000049e+00 1.073329999999999984e+02 4.984920000000000329e+01 2.969030000000000200e+02 2.133564078557256272e-01
1.010000000000000000e+02 1.000000000000000000e+00 4.128449999999999953e+00 8.751679999999999460e-01 4.978430000000000177e+01 2.950779999999999745e+02 2.136716998183344207e-01
1.020000000000000000e+02 1.000000000000000000e+00 5.317009999999999792e+00 1.590049999999999963e+00 4.967830000000000013e+01 2.998969999999999914e+02 2.126297343331846057e-01
1.030000000000000000e+02 1.000000000000000000e+00 5.354659999999999975e+00 3.033630000000000049e+00 4.965229999999999677e+01 2.944069999999999823e+02 2.123637968180449864e-01
1.040000000000000000e+02 1.000000000000000000e+00 4.103979999999999961e+00 3.763469999999999871e+00 4.951789999999999736e+01 2.952789999999999964e+02 2.126739514786399055e-01
1.050000000000000000e+02 1.000000000000000000e+00 4.059440000000000381e+00 5.240509999999999557e+00 4.953940000000000055e+01 2.996120000000000232e+02 2.131086816579165211e-01
1.060000000000000000e+02 1.000000000000000000e+00 5.348099999999999632e+00 5.914799999999999613e+00 4.958970000000000056e+01 2.942559999999999718e+02 2.129018989113683480e-01
1.070000000000000000e+02 1.000000000000000000e+00 5.349090000000000344e+00 7.365820000000000256e+00 4.962210000000000321e+01 2.975070000000000050e+02 2.131941470082655832e-01
1.080000000000000000e+02 1.000000000000000000e+00 4.118210000000000370e+00 8.095760000000000289e+00 4.964549999999999841e+01 2.929769999999999754e+02 2.127318588081784090e-01
1.090000000000000000e+02 1.000000000000000000e+00 4.158809999999999896e+00 9.505089999999999151e+00 4.971829999999999927e+01 2.983249999999999886e+02 2.128704501578113639e-01
1.100000000000000000e+02 1.000000000000000000e+00 5.377849999999999575e+00 1.020429999999999993e+01 4.958500000000000085e+01 2.922370000000000232e+02 2.133749486638124582e-01
1.110000000000000000e+02 1.000000000000000000e+00 5.406349999999999767e+00 1.166479999999999961e+01 4.962429999999999808e+01 2.960049999999999955e+02 2.128663818658537987e-01
1.120000000000000000e+02 1.000000000000000000e+00 4.138270000000000337e+00 1.238770000000000060e+01 4.962720000000000198e+01 3.015070000000000050e+02 2.125354265189320357e-01
1.130000000000000000e+02 1.000000000000000000e+00 4.174059999999999881e+00 1.383530000000000015e+01 4.958229999999999649e+01 2.943330000000000268e+02 2.119260027568086457e-01
1.140000000000000000e+02 1.000000000000000000e+00 5.435730000000000395e+00 1.453810000000000002e+01 4.961339999999999861e+01 3.026689999999999827e+02 2.129642377515469920e-01
1.150000000000000000e+02 1.000000000000000000e+00 5.394319999999999560e+00 1.597649999999999970e+01 4.960589999999999833e+01 2.936159999999999854e+02 2.128851167795088317e-01
1.160000000000000000e+02 1.000000000000000000e+00 4.177100000000000257e+00 1.670319999999999894e+01 4.940849999999999653e+01 2.926870000000000118e+02 2.128411334702017266e-01
1.170000000000000000e+02 1.000000000000000000e+00 4.135979999999999990e+00 1.814999999999999858e+01 4.929719999999999658e+01 2.939649999999999750e+02 2.116983429435154163e-01
1.180000000000000000e+02 1.000000000000000000e+00 5.428410000000000402e+00 1.886189999999999856e+01 4.948049999999999926e+01 2.957379999999999995e+02 2.115536265447886533e-01
1.190000000000000000e+02 1.000000000000000000e+00 5.435209999999999653e+00 2.031510000000000105e+01 4.946849999999999881e+01 2.938140000000000214e+02 2.120629372360259002e-01
1.200000000000000000e+02 1.000000000000000000e+00 4.117140000000000022e+00 2.102590000000000003e+01 4.935009999999999764e+01 2.949499999999999886e+02 2.134606607548938662e-01
1.210000000000000000e+02 1.000000000000000000e+00 4.117609999999999992e+00 2.245899999999999963e+01 4.936569999999999681e+01 2.988210000000000264e+02 2.128866124816751748e-01
1.220000000000000000e+02 1.000000000000000000e+00 5.355050000000000310e+00 2.321420000000000172e+01 4.943509999999999849e+01 2.949730000000000132e+02 2.124719378232175215e-01
1.230000000000000000e+02 1.000000000000000000e+00 5.382620000000000182e+00 2.466169999999999973e+01 4.934749999999999659e+01 2.976879999999999882e+02 2.123877812555020062e-01
1.240000000000000000e+02 1.000000000000000000e+00 4.123009999999999842e+00 2.537460000000000093e+01 4.925110000000000099e+01 2.973700000000000045e+02 2.123956546053422656e-01
1.250000000000000000e+02 1.000000000000000000e+00 4.160779999999999923e+00 2.676320000000000121e+01 4.929520000000000124e+01 3.004470000000000027e+02 2.124370309718917604e-01
1.260000000000000000e+02 1.000000000000000000e+00 5.420029999999999681e+00 2.748809999999999931e+01 4.943079999999999785e+01 2.947500000000000000e+02 2.130781974616447472e-01
1.270000000000000000e+02 1.000000000000000000e+00 5.388490000000000002e+00 2.891580000000000084e+01 4.950540000000000163e+01 2.964889999999999759e+02 2.136930323821326361e-01
1.280000000000000000e+02 1.000000000000000000e+00 4.109980000000000189e+00 2.967579999999999885e+01 4.943860000000000099e+01 2.933279999999999745e+02 2.129425829365688416e-01
1.290000000000000000e+02 1.000000000000000000e+00 4.138959999999999972e+00 3.108579999999999899e+01 4.945799999999999841e+01 2.946150000000000091e+02 2.120471677904461338e-01
1.300000000000000000e+02 1.000000000000000000e+00 5.361769999999999925e+00 3.185940000000000083e+01 4.946609999999999729e+01 2.995269999999999868e+02 2.125465936366761621e-01
1.310000000000000000e+02 1.000000000000000000e+00 5.424269999999999925e+00 3.329010000000000247e+01 4.944559999999999889e+01 2.991009999999999991e+02 2.125949161378428154e-01
1.320000000000000000e+02 1.000000000000000000e+00 4.139090000000000380e+00 3.399569999999999936e+01 4.929110000000000014e+01 2.925500000000000114e+02 2.125135793767347625e-01
1.330000000000000000e+02 1.000000000000000000e+00 4.159959999999999880e+00 3.544219999999999970e+01 4.913089999999999691e+01 2.946220000000000141e+02 2.124009422640048272e-01
1.340000000000000000e+02 1.000000000000000000e+00 5.437780000000000058e+00 3.609089999999999776e+01 4.903179999999999694e+01 2.987019999999999982e+02 2.117318122691208282e-01
1.350000000000000000e+02 1.000000000000000000e+00 5.469400000000000261e+00 3.757600000000000051e+01 4.890610000000000213e+01 3.014660000000000082e+02 2.125409967530024202e-01
1.360000000000000000e+02 1.000000000000000000e+00 4.201380000000000337e+00 3.833910000000000196e+01 4.891919999999999646e+01 2.920950000000000273e+02 2.121539586505002406e-01
1.370000000000000000e+02 1.000000000000000000e+00 4.150990000000000180e+00 3.975610000000000355e+01 4.885220000000000340e+01 2.976000000000000227e+02 2.133277640754359661e-01
1.380000000000000000e+02 1.000000000000000000e+00 5.410449999999999982e+00 4.050379999999999825e+01 4.878640000000000043e+01 2.939080000000000155e+02 2.131987441664904004e-01
1.390000000000000000e+02 1.000000000000000000e+00 5.375219999999999665e+00 4.194489999999999696e+01 4.876619999999999777e+01 2.983480000000000132e+02 2.132353189087184964e-01
1.400000000000000000e+02 1.000000000000000000e+00 4.156649999999999956e+00 4.266490000000000293e+01 4.871790000000000020e+01 2.941750000000000114e+02 2.121089620258906905e-01
1.410000000000000000e+02 1.000000000000000000e+00 4.201920000000000321e+00 4.409949999999999903e+01 4.863219999999999743e+01 2.963109999999999786e+02 2.127999918573945104e-01
1.420000000000000000e+02 1.000000000000000000e+00 5.443819999999999659e+00 4.483220000000000027e+01 4.866329999999999956e+01 2.975779999999999745e+02 2.129597794697366542e-01
1.430000000000000000e+02 1.000000000000000000e+00 5.435089999999999755e+00 4.625809999999999889e+01 4.877230000000000132e+01 2.992970000000000255e+02 2.134236869636326195e-01
1.440000000000000000e+02 1.000000000000000000e+00 4.168140000000000178e+00 4.694389999999999930e+01 4.866680000000000206e+01 2.952110000000000127e+02 2.120624869137987256e-01
1.450000000000000000e+02 1.000000000000000000e+00 4.164209999999999745e+00 4.838550000000000040e+01 4.859089999999999776e+01 2.957690000000000055e+02 2.125556222372507187e-01
1.460000000000000000e+02 1.000000000000000000e+00 5.433230000000000004e+00 4.909170000000000300e+01 4.866599999999999682e+01 2.909479999999999791e+02 2.132495815976754583e-01
1.470000000000000000e+02 1.000000000000000000e+00 5.427769999999999762e+00 5.051299999999999812e+01 4.856239999999999668e+01 2.996190000000000282e+02 2.136073597396159207e-01
1.480000000000000000e+02 1.000000000000000000e+00 4.178259999999999863e+00 5.121589999999999776e+01 4.851579999999999870e+01 3.002429999999999950e+02 2.130398567986565572e-01
1.490000000000000000e+02 1.000000000000000000e+00 4.169590000000000352e+00 5.266590000000000060e+01 4.841250000000000142e+01 2.958389999999999986e+02 2.128963394124543385e-01
1.500000000000000000e+02 1.000000000000000000e+00 5.414390000000000036e+00 5.338080000000000069e+01 4.838750000000000284e+01 2.980760000000000218e+02 2.127729592797405755e-01
1.510000000000000000e+02 1.000000000000000000e+00 5.369069999999999787e+00 5.479869999999999663e+01 4.848140000000000072e+01 2.960670000000000073e+02 2.130781885273491660e-01
1.520000000000000000e+02 1.000000000000000000e+00 4.156130000000000102e+00 5.556470000000000198e+01 4.849920000000000186e+01 2.936680000000000064e+02 2.135331828795269116e-01
1.530000000000000000e+02 1.000000000000000000e+00 4.151259999999999728e+00 5.700189999999999912e+01 4.847520000000000095e+01 2.971429999999999723e+02 2.133495010142127390e-01
1.540000000000000000e+02 1.000000000000000000e+00 5.398629999999999818e+00 5.769559999999999889e+01 4.842540000000000333e+01 2.971730000000000018e+02 2.122897423567056685e-01
1.550000000000000000e+02 1.000000000000000000e+00 5.383119999999999905e+00 5.915509999999999735e+01 4.847769999999999868e+01 2.994719999999999800e+02 2.123511874211917172e-01
1.560000000000000000e+02 1.000000000000000000e+00 4.132789999999999964e+00 5.989470000000000027e+01 4.840350000000000108e+01 2.959540000000000077e+02 2.134295340158422205e-01
1.570000000000000000e+02 1.000000000000000000e+00 4.148959999999999759e+00 6.132070000000000221e+01 4.848749999999999716e+01 2.912169999999999845e+02 2.127472384231992586e-01
1.580000000000000000e+02 1.000000000000000000e+00 5.371279999999999610e+00 6.204990000000000094e+01 4.846099999999999852e+01 2.983360000000000127e+02 2.126867634965231846e-01
1.590000000000000000e+02 1.000000000000000000e+00 5.372630000000000017e+00 6.354039999999999822e+01 4.844350000000000023e+01 2.992850000000000250e+02 2.119910348710461745e-01
1.600000000000000000e+02 1.000000000000000000e+00 4.122650000000000148e+00 6.422950000000000159e+01 4.840630000000000166e+01 3.008319999999999936e+02 2.123550719536360654e-01
1.610000000000000000e+02 1.000000000000000000e+00 4.157259999999999955e+00 6.566179999999999950e+01 4.869039999999999679e+01 2.990219999999999914e+02 2.129919749585455213e-01
1.620000000000000000e+02 1.000000000000000000e+00 5.428630000000000067e+00 6.634999999999999432e+01 4.871609999999999729e+01 2.954220000000000255e+02 2.127163522947467245e-01
1.630000000000000000e+02 1.000000000000000000e+00 5.390799999999999592e+00 6.776839999999999975e+01 4.886580000000000013e+01 2.938460000000000036e+02 2.128638611443282869e-01
1.640000000000000000e+02 1.000000000000000000e+00 4.139389999999999681e+00 6.851690000000000680e+01 4.886129999999999995e+01 2.966639999999999873e+02 2.127008260880676183e-01
1.650000000000000000e+02 1.000000000000000000e+00 4.129229999999999734e+00 6.993810000000000571e+01 4.896650000000000347e+01 2.957549999999999955e+02 2.132707375039706033e-01
1.660000000000000000e+02 1.000000000000000000e+00 5.346090000000000231e+00 7.069989999999999952e+01 4.917360000000000042e+01 2.948020000000000209e+02 2.129772135483523898e-01
1.670000000000000000e+02 1.000000000000000000e+00 5.306210000000000093e+00 7.211709999999999354e+01 4.927570000000000050e+01 2.953279999999999745e+02 2.131883797834103200e-01
1.680000000000000000e+02 1.000000000000000000e+00 4.102820000000000356e+00 7.284820000000000562e+01 4.937080000000000268e+01 2.997470000000000141e+02 2.137135706693384374e-01
1.690000000000000000e+02 1.000000000000000000e+00 4.126290000000000013e+00 7.428830000000000666e+01 4.956669999999999732e+01 2.997660000000000196e+02 2.124978903446167189e-01