ITEM: TIMESTEP
0
ITEM: NUMBER OF ATOMS
4400
ITEM: BOX BOUNDS pp pp pp
6.5943074095061971e-01 1.1030857165904861e+02
6.4890142869593304e-01 1.0855684807130388e+02
0.0000000000000000e+00 1.0000000000000000e+02
ITEM: ATOMS id type x y z f_5
2 1 2.83487 1.59075 49.9527 0
101 1 4.06903 0.883915 49.9149 0
102 1 5.33933 1.64347 49.9831 0
401 1 11.5573 0.886416 49.9074 0
402 1 12.7924 1.6217 49.9268 0
501 1 14.0797 0.925312 49.9431 0
4 1 1.58169 3.73981 49.8355 0
3 1 2.82747 2.99557 49.8975 0
104 1 4.08264 3.75243 49.9285 0
103 1 5.33076 3.07764 49.9537 0
403 1 12.7941 3.01828 49.9579 0
5 1 1.55843 5.21605 49.8758 0
105 1 4.04314 5.20757 49.9885 0
106 1 5.33495 5.92088 49.9896 0
1 1 1.59223 0.876683 50.0261 0
201 1 6.61682 0.940372 50.03 0
301 1 9.09453 0.875624 50.0604 0
202 1 7.84729 1.61565 50.1217 0
302 1 10.3299 1.59435 50.0236 0
204 1 6.58864 3.73717 50.0641 0
304 1 9.0753 3.75138 50.1089 0
203 1 7.81191 3.0066 50.093 0
303 1 10.3262 3.01401 50.1089 0
404 1 11.5401 3.7647 50.0734 0
504 1 13.9851 3.71955 50.0647 0
205 1 6.57853 5.19735 50.0334 0
305 1 9.09685 5.22977 50.186 0
405 1 11.5384 5.20238 50.2314 0
505 1 14.0168 5.19376 50.1393 0
6 1 2.79485 5.93035 50.041 0
206 1 7.84398 5.95359 50.1086 0
306 1 10.3227 5.95236 50.2481 0
406 1 12.7971 5.94393 50.1493 0
8 1 1.58811 8.08361 50.1408 0
7 1 2.82841 7.34343 50.176 0
108 1 4.07208 8.07624 50.3343 0
107 1 5.35566 7.33379 50.1698 0
208 1 6.60436 8.00282 50.143 0
308 1 9.04549 8.09497 50.2918 0
207 1 7.83372 7.37946 50.1881 0
307 1 10.3114 7.36146 50.3329 0
408 1 11.5321 8.04391 50.439 0
508 1 14.0377 8.03973 50.4174 0
407 1 12.7886 7.33462 50.3238 0
9 1 1.67337 9.51762 50.2127 0
10 1 2.901 10.2524 50.3201 0
109 1 4.1082 9.50548 50.3474 0
110 1 5.39748 10.2515 50.3401 0
209 1 6.64652 9.48112 50.2791 0
210 1 7.85531 10.2624 50.3776 0
309 1 9.09124 9.50635 50.411 0
310 1 10.2859 10.2327 50.5628 0
409 1 11.5431 9.45888 50.6137 0
509 1 14.0196 9.49902 50.5769 0
410 1 12.7919 10.1832 50.6798 0
11 1 2.85394 11.685 50.3671 0
111 1 5.39217 11.6874 50.3339 0
211 1 7.87039 11.6929 50.4612 0
311 1 10.3242 11.6689 50.6726 0
411 1 12.8136 11.6434 50.8103 0
12 1 1.62824 12.4032 50.4295 0
112 1 4.128 12.3651 50.2998 0
212 1 6.583 12.3739 50.3036 0
312 1 9.08247 12.3931 50.546 0
412 1 11.6048 12.3589 50.7734 0
512 1 14.0294 12.3854 50.8898 0
13 1 1.63763 13.833 50.5398 0
14 1 2.89138 14.5509 50.5221 0
113 1 4.12796 13.8162 50.3374 0
114 1 5.34709 14.5419 50.2913 0
213 1 6.59659 13.7935 50.3575 0
214 1 7.86514 14.5014 50.4641 0
313 1 9.11211 13.8033 50.5261 0
314 1 10.3777 14.5131 50.5833 0
413 1 11.6123 13.7724 50.722 0
513 1 14.0758 13.8113 50.9541 0
414 1 12.8515 14.55 50.8526 0
16 1 1.66258 16.7359 50.3809 0
15 1 2.86631 15.984 50.4268 0
116 1 4.12272 16.72 50.3822 0
115 1 5.36948 15.9898 50.3093 0
216 1 6.62608 16.6586 50.3498 0
316 1 9.12188 16.6559 50.5218 0
215 1 7.90385 15.9512 50.4829 0
315 1 10.3814 15.9505 50.5516 0
416 1 11.5652 16.7136 50.6649 0
516 1 14.0857 16.6825 50.9858 0
415 1 12.7853 16.0033 50.8305 0
17 1 1.61916 18.1505 50.3098 0
117 1 4.09372 18.1583 50.35 0
217 1 6.62916 18.1348 50.4132 0
317 1 9.09052 18.11 50.5977 0
417 1 11.5823 18.1491 50.5619 0
517 1 14.0794 18.1834 50.8628 0
226 1 7.82345 27.453 49.9815 0
328 1 9.1449 29.6132 49.9719 0
227 1 7.84819 28.9265 49.9621 0
330 1 10.4632 31.7594 49.9255 0
331 1 10.4638 33.2087 49.9117 0
18 1 2.82567 18.8888 50.3253 0
118 1 5.38114 18.8708 50.3608 0
218 1 7.85819 18.8659 50.5348 0
318 1 10.3173 18.8745 50.523 0
418 1 12.8364 18.8812 50.6603 0
20 1 1.61139 21.0224 50.1433 0
19 1 2.83602 20.3189 50.2191 0
119 1 5.39477 20.3273 50.347 0
120 1 4.09529 21.0337 50.2964 0
220 1 6.62094 21.0483 50.436 0
219 1 7.86634 20.2908 50.519 0
320 1 9.07697 21.012 50.6159 0
319 1 10.3685 20.3239 50.6457 0
420 1 11.6141 21.0467 50.6898 0
419 1 12.8686 20.3681 50.6871 0
520 1 14.1405 21.0675 50.6738 0
21 1 1.62935 22.4535 50.0648 0
22 1 2.84591 23.1813 50.2195 0
121 1 4.09203 22.4548 50.351 0
122 1 5.3408 23.2265 50.3793 0
221 1 6.58907 22.4772 50.4236 0
222 1 7.86549 23.1698 50.5114 0
321 1 9.06388 22.4432 50.6572 0
322 1 10.336 23.1613 50.6568 0
421 1 11.5671 22.4389 50.6665 0
422 1 12.8426 23.1823 50.7011 0
521 1 14.1019 22.4921 50.7339 0
23 1 2.83251 24.6117 50.2516 0
123 1 5.3532 24.6554 50.3019 0
223 1 7.81444 24.6084 50.3688 0
323 1 10.3681 24.5962 50.5515 0
423 1 12.8656 24.6288 50.6603 0
24 1 1.6253 25.3554 50.081 0
124 1 4.12926 25.3444 50.2445 0
125 1 4.08975 26.8053 50.2449 0
224 1 6.61592 25.3267 50.3097 0
225 1 6.60518 26.772 50.2007 0
324 1 9.10631 25.2735 50.4279 0
325 1 9.0928 26.7167 50.2067 0
424 1 11.627 25.2952 50.5317 0
425 1 11.608 26.7385 50.382 0
525 1 14.1097 26.7108 50.413 0
524 1 14.1024 25.3055 50.6522 0
25 1 1.61011 26.817 50.1274 0
26 1 2.8476 27.5233 50.2194 0
126 1 5.41986 27.5023 50.222 0
326 1 10.3477 27.4345 50.1695 0
426 1 12.8635 27.4361 50.344 0
28 1 1.61371 29.7066 50.2585 0
27 1 2.88161 28.9633 50.1995 0
127 1 5.41013 28.9426 50.1439 0
128 1 4.13893 29.6457 50.22 0
228 1 6.63885 29.6934 50.0525 0
327 1 10.3728 28.8676 50.1162 0
428 1 11.6282 29.5805 50.098 0
528 1 14.1032 29.6301 50.1962 0
427 1 12.8802 28.8855 50.2731 0
29 1 1.68136 31.132 50.1863 0
129 1 4.11229 31.1017 50.1522 0
229 1 6.70513 31.1358 50.0115 0
329 1 9.17529 31.0928 50.0025 0
429 1 11.6708 31.0733 50.035 0
529 1 14.1297 31.0787 50.1015 0
30 1 2.9021 31.8238 50.171 0
31 1 2.9219 33.2676 50.2181 0
131 1 5.45217 33.2654 50.2005 0
130 1 5.41404 31.8221 50.0918 0
231 1 7.94752 33.2568 50.0265 0
230 1 7.98387 31.8513 50.0902 0
431 1 12.9281 33.2021 50.155 0
430 1 12.9234 31.7747 50.0862 0
32 1 1.66461 33.961 50.1892 0
132 1 4.16901 33.9657 50.2728 0
232 1 6.70787 33.9942 50.1601 0
332 1 9.19081 33.9957 50.0382 0
432 1 11.6846 33.9537 50.0534 0
532 1 14.1691 33.9748 50.3062 0
33 1 1.67704 35.4326 50.3353 0
34 1 2.92746 36.1566 50.3304 0
133 1 4.14364 35.4034 50.2778 0
134 1 5.41325 36.1678 50.2709 0
233 1 6.6643 35.4516 50.185 0
234 1 7.95839 36.1784 50.082 0
333 1 9.16712 35.4351 50.0857 0
334 1 10.399 36.0924 50.0335 0
433 1 11.6147 35.379 50.0536 0
434 1 12.8642 36.1469 50.1636 0
533 1 14.1444 35.4562 50.3425 0
337 1 9.12882 39.7697 49.9701 0
238 1 7.83984 40.4761 49.9323 0
338 1 10.3587 40.488 49.9061 0
139 1 5.35268 41.9658 49.9825 0
240 1 6.63595 42.6669 49.8476 0
239 1 7.86194 41.9115 49.8466 0
340 1 9.10478 42.6063 49.8765 0
339 1 10.3332 41.9412 49.8908 0
440 1 11.6282 42.6292 49.9453 0
41 1 1.68267 44.0724 49.9471 0
142 1 5.37247 44.7908 49.9552 0
241 1 6.66805 44.1128 49.8199 0
242 1 7.90161 44.7666 49.8166 0
341 1 9.15559 44.0422 49.9461 0
342 1 10.4396 44.6999 49.9385 0
441 1 11.6424 44.0561 49.9084 0
243 1 7.86207 46.2267 49.8346 0
343 1 10.3822 46.1786 49.9371 0
344 1 9.12785 46.9248 49.9583 0
35 1 2.87785 37.6402 50.4189 0
135 1 5.407 37.6047 50.2897 0
235 1 7.93254 37.61 50.0913 0
335 1 10.4219 37.5409 50.0431 0
435 1 12.8467 37.5989 50.1512 0
36 1 1.65799 38.3287 50.3299 0
37 1 1.63152 39.79 50.2401 0
137 1 4.09764 39.7901 50.2205 0
136 1 4.15882 38.3502 50.3939 0
237 1 6.58645 39.7604 50.0452 0
236 1 6.64966 38.3295 50.1925 0
336 1 9.15123 38.3295 50.0284 0
436 1 11.6055 38.2946 50.02 0
437 1 11.6096 39.7777 50.0068 0
536 1 14.0763 38.2791 50.1336 0
537 1 14.1075 39.6974 50.1865 0
38 1 2.86259 40.48 50.1824 0
138 1 5.32585 40.4914 50.0428 0
438 1 12.8791 40.4471 50.0601 0
40 1 1.62655 42.6294 50.0294 0
39 1 2.88293 41.9461 50.1454 0
140 1 4.08754 42.6619 50.0554 0
540 1 14.1136 42.6203 50.1268 0
439 1 12.8495 41.8998 50.035 0
141 1 4.13077 44.1149 50.0105 0
541 1 14.1058 44.0156 50.1707 0
442 1 12.8787 44.7269 50.023 0
42 1 2.89963 44.7987 50.0699 0
43 1 2.90422 46.2552 50.0176 0
143 1 5.38221 46.2629 50.027 0
443 1 12.8594 46.1532 50.1499 0
44 1 1.6755 46.953 50.0337 0
144 1 4.14731 46.9765 50.0359 0
244 1 6.64582 47.0212 50.0065 0
444 1 11.6281 46.9154 50.1008 0
544 1 14.1365 46.876 50.2398 0
45 1 1.66505 48.4018 50.0643 0
46 1 2.94426 49.1262 50.0446 0
146 1 5.45084 49.1016 50.1536 0
145 1 4.18561 48.4045 50.0883 0
245 1 6.67679 48.421 50.2246 0
246 1 7.87166 49.1255 50.1521 0
345 1 9.17906 48.4124 50.0187 0
346 1 10.4116 49.0925 50.1503 0
445 1 11.6397 48.3859 50.1326 0
446 1 12.8745 49.0715 50.2352 0
545 1 14.1379 48.3446 50.3107 0
48 1 1.66619 51.2886 50.1956 0
47 1 2.93909 50.5967 50.1094 0
147 1 5.41892 50.5849 50.1446 0
248 1 6.65292 51.2918 50.238 0
348 1 9.11231 51.2676 50.271 0
247 1 7.91991 50.5762 50.2296 0
347 1 10.3578 50.5736 50.2402 0
448 1 11.6661 51.2327 50.2435 0
447 1 12.878 50.5495 50.361 0
548 1 14.1585 51.2169 50.3641 0
49 1 1.66446 52.7294 50.3978 0
148 1 4.16942 51.3393 50.2522 0
149 1 4.17879 52.7766 50.4396 0
249 1 6.61966 52.7276 50.3534 0
349 1 9.10283 52.7232 50.3176 0
449 1 11.6324 52.7014 50.3117 0
549 1 14.0947 52.6432 50.4822 0
50 1 2.90728 53.4454 50.4468 0
150 1 5.42869 53.4819 50.4682 0
250 1 7.86667 53.4522 50.3527 0
350 1 10.3248 53.4132 50.3659 0
450 1 12.8842 53.4209 50.5542 0
52 1 1.63702 55.6052 50.5205 0
51 1 2.85365 54.8519 50.4977 0
152 1 4.17836 55.5635 50.4474 0
151 1 5.39886 54.8949 50.4834 0
252 1 6.66115 55.6157 50.4783 0
251 1 7.91048 54.9081 50.3921 0
352 1 9.17681 55.5984 50.3553 0
351 1 10.3595 54.8496 50.4554 0
452 1 11.6126 55.553 50.5424 0
451 1 12.8406 54.8046 50.6442 0
552 1 14.0964 55.5318 50.8378 0
53 1 1.65519 57.036 50.5381 0
54 1 2.90077 57.7077 50.5114 0
153 1 4.15175 56.9998 50.4758 0
154 1 5.38005 57.7301 50.4379 0
253 1 6.6596 57.0609 50.4292 0
254 1 7.87603 57.7132 50.4441 0
353 1 9.15581 56.9971 50.3882 0
354 1 10.3884 57.7136 50.5858 0
453 1 11.6269 56.9958 50.6221 0
454 1 12.873 57.689 50.7889 0
553 1 14.1405 56.9506 50.9138 0
55 1 2.94883 59.1812 50.5681 0
155 1 5.41947 59.1405 50.5184 0
255 1 7.89394 59.1374 50.5754 0
355 1 10.414 59.1512 50.6324 0
455 1 12.9036 59.1725 50.7225 0
56 1 1.69267 59.9169 50.4781 0
156 1 4.19675 59.9015 50.5946 0
256 1 6.67226 59.8466 50.5927 0
356 1 9.14287 59.8846 50.6041 0
456 1 11.6593 59.8351 50.6208 0
556 1 14.1285 59.8721 50.7839 0
57 1 1.70068 61.3712 50.4912 0
58 1 2.99039 62.0426 50.5013 0
157 1 4.23618 61.3317 50.5623 0
158 1 5.44966 62.0393 50.6619 0
257 1 6.68439 61.2929 50.6561 0
258 1 7.87826 62.0403 50.7551 0
357 1 9.13306 61.3048 50.6542 0
358 1 10.4026 62.0211 50.6331 0
457 1 11.6382 61.2672 50.6545 0
458 1 12.867 62.034 50.6754 0
557 1 14.138 61.3318 50.775 0
60 1 1.69464 64.1755 50.3167 0
59 1 2.97014 63.519 50.4619 0
159 1 5.43847 63.4762 50.6927 0
160 1 4.19988 64.1999 50.6065 0
260 1 6.65112 64.1712 50.8158 0
259 1 7.91005 63.4476 50.8219 0
360 1 9.17479 64.1762 50.811 0
359 1 10.3928 63.4804 50.7301 0
460 1 11.6204 64.2072 50.7797 0
459 1 12.8736 63.4737 50.767 0
560 1 14.1703 64.2097 50.9159 0
61 1 1.70316 65.6198 50.2929 0
161 1 4.18169 65.6072 50.543 0
261 1 6.6417 65.64 50.7693 0
361 1 9.14005 65.6283 50.8531 0
461 1 11.6938 65.6588 50.8356 0
561 1 14.1645 65.5812 51.091 0
62 1 2.95589 66.326 50.3668 0
162 1 5.44261 66.3759 50.6451 0
262 1 7.90987 66.3407 50.7817 0
362 1 10.3752 66.3348 50.8317 0
462 1 12.9421 66.3335 50.9873 0
64 1 1.69586 68.4907 50.2183 0
63 1 2.95582 67.7755 50.3192 0
163 1 5.42435 67.8129 50.4867 0
164 1 4.19496 68.5559 50.3032 0
264 1 6.68927 68.5049 50.566 0
364 1 9.14719 68.478 50.7836 0
263 1 7.89945 67.7729 50.7077 0
363 1 10.4245 67.792 50.8773 0
464 1 11.6772 68.4879 50.9056 0
564 1 14.1593 68.4488 51.0427 0
463 1 12.935 67.7731 50.9582 0
65 1 1.72018 69.9934 50.1644 0
66 1 2.94074 70.6952 50.233 0
166 1 5.45947 70.6873 50.2466 0
165 1 4.17649 69.9696 50.2213 0
265 1 6.70787 69.9231 50.3689 0
365 1 9.14588 69.9176 50.638 0
266 1 7.9614 70.66 50.4028 0
366 1 10.4153 70.6542 50.7094 0
465 1 11.6808 69.9237 50.8587 0
565 1 14.2019 69.8762 51.0373 0
466 1 12.9372 70.6152 50.8429 0
67 1 2.91712 72.1084 50.0809 0
167 1 5.47539 72.0958 50.1718 0
267 1 7.95732 72.0747 50.3038 0
367 1 10.4113 72.1032 50.6749 0
467 1 12.9385 72.078 50.8424 0
68 1 1.70461 72.8325 49.8973 0
69 1 1.73077 74.2675 49.8029 0
70 1 2.97805 74.9772 49.8337 0
170 1 5.50843 74.9883 49.9139 0
169 1 4.25298 74.2803 49.9142 0
269 1 6.75659 74.2502 49.9938 0
72 1 1.74118 77.1551 49.7198 0
71 1 2.99037 76.3946 49.7651 0
172 1 4.205 77.1284 49.7371 0
171 1 5.43196 76.3958 49.9076 0
73 1 1.75439 78.6078 49.6717 0
173 1 4.23242 78.5645 49.6821 0
273 1 6.69536 78.632 49.9501 0
74 1 3.00744 79.2922 49.716 0
75 1 3.00685 80.7006 49.776 0
174 1 5.48258 79.3436 49.7091 0
275 1 8.02897 80.7413 49.9831 0
76 1 1.74138 81.423 49.8289 0
176 1 4.24715 81.47 49.7875 0
175 1 5.47444 80.7758 49.7731 0
276 1 6.69967 81.4699 49.9164 0
77 1 1.73204 82.8421 49.9512 0
177 1 4.21986 82.9059 49.9103 0
277 1 6.73469 82.8896 49.9862 0
168 1 4.21119 72.8557 50.0762 0
268 1 6.7271 72.8106 50.1428 0
368 1 9.1765 72.8508 50.4426 0
468 1 11.6825 72.7941 50.7681 0
568 1 14.1577 72.8222 50.975 0
270 1 7.98766 74.9913 50.0937 0
369 1 9.23082 74.3029 50.3628 0
370 1 10.4924 74.9838 50.5364 0
469 1 11.6888 74.2625 50.8087 0
569 1 14.129 74.246 50.9362 0
470 1 12.8973 75.0214 50.8337 0
272 1 6.68342 77.1471 50.045 0
271 1 7.93124 76.4535 50.1146 0
372 1 9.22392 77.152 50.31 0
371 1 10.4573 76.4361 50.4892 0
472 1 11.6775 77.1373 50.6119 0
572 1 14.1526 77.1586 50.7153 0
471 1 12.9198 76.4719 50.7546 0
373 1 9.204 78.5919 50.2753 0
473 1 11.6515 78.5444 50.5242 0
573 1 14.1739 78.5899 50.6086 0
274 1 7.95113 79.2974 50.1109 0
374 1 10.4457 79.2925 50.4061 0
375 1 10.4575 80.7088 50.327 0
474 1 12.9112 79.2749 50.5308 0
475 1 12.9291 80.7094 50.5615 0
376 1 9.24624 81.4297 50.1548 0
476 1 11.6716 81.4132 50.4701 0
576 1 14.1735 81.396 50.4409 0
78 1 2.97957 83.6172 50.0617 0
178 1 5.47832 83.598 50.1006 0
278 1 7.9686 83.6378 50.1702 0
377 1 9.21892 82.9402 50.2077 0
378 1 10.4712 83.6092 50.3056 0
477 1 11.6959 82.8984 50.3605 0
577 1 14.1617 82.885 50.3381 0
478 1 12.9527 83.6173 50.3188 0
79 1 2.96796 85.0438 50.2587 0
179 1 5.44388 85.0135 50.2608 0
279 1 7.93365 85.0477 50.3003 0
379 1 10.4368 85.0084 50.4204 0
479 1 12.9591 85.0534 50.3503 0
80 1 1.73689 85.7605 50.3749 0
81 1 1.69308 87.1753 50.4093 0
180 1 4.21842 85.7471 50.3453 0
181 1 4.17382 87.202 50.4154 0
280 1 6.701 85.7509 50.3799 0
281 1 6.66844 87.2092 50.4444 0
381 1 9.15503 87.221 50.318 0
380 1 9.21081 85.7462 50.3891 0
480 1 11.7147 85.7275 50.4575 0
481 1 11.6526 87.1809 50.4639 0
580 1 14.1871 85.713 50.3484 0
581 1 14.0795 87.1669 50.334 0
82 1 2.93329 87.9223 50.3501 0
182 1 5.39985 87.9106 50.4605 0
282 1 7.90906 87.9346 50.3878 0
382 1 10.3908 87.9053 50.3685 0
482 1 12.8522 87.9056 50.4506 0
84 1 1.62546 90.0559 50.5131 0
83 1 2.8931 89.3343 50.4617 0
183 1 5.43159 89.3584 50.4621 0
184 1 4.15718 90.0316 50.3705 0
284 1 6.64428 90.0887 50.382 0
384 1 9.11091 90.0663 50.2706 0
283 1 7.86134 89.368 50.3547 0
383 1 10.3648 89.3471 50.2737 0
484 1 11.5964 90.0684 50.2428 0
483 1 12.8603 89.36 50.3278 0
584 1 14.1021 90.0533 50.1863 0
487 1 12.8532 93.6695 49.983 0
488 1 11.6025 94.4054 49.9211 0
588 1 14.1204 94.3525 49.8554 0
190 1 5.389 96.5815 49.9366 0
290 1 7.87214 96.5349 49.9316 0
390 1 10.3828 96.5665 49.9344 0
489 1 11.6287 95.84 49.8964 0
490 1 12.848 96.5958 49.7265 0
589 1 14.1415 95.8465 49.8123 0
92 1 1.55557 98.6928 49.8686 0
91 1 2.88965 98.0106 49.914 0
192 1 4.08892 98.7332 49.8049 0
191 1 5.33709 97.9738 49.8062 0
292 1 6.61215 98.6931 49.7238 0
392 1 9.10742 98.6847 49.837 0
291 1 7.83904 97.965 49.826 0
391 1 10.3524 97.9866 49.8286 0
492 1 11.5933 98.7146 49.7735 0
592 1 14.0776 98.6985 49.6644 0
491 1 12.8316 98.0217 49.6853 0
93 1 1.62783 100.151 49.8093 0
193 1 4.08161 100.144 49.7099 0
293 1 6.5976 100.143 49.6676 0
393 1 9.09458 100.143 49.7883 0
493 1 11.5729 100.148 49.8325 0
593 1 14.1128 100.172 49.6796 0
94 1 2.85355 100.885 49.7296 0
194 1 5.37982 100.864 49.7796 0
294 1 7.808 100.877 49.7367 0
394 1 10.3125 100.891 49.7873 0
494 1 12.8427 100.908 49.8174 0
96 1 1.56207 103.029 49.7456 0
95 1 2.83951 102.301 49.7476 0
195 1 5.3795 102.344 49.8189 0
196 1 4.09898 103.039 49.7718 0
296 1 6.58426 103.051 49.817 0
396 1 9.05364 103.063 49.7748 0
295 1 7.81859 102.323 49.7535 0
395 1 10.3192 102.331 49.7974 0
496 1 11.5582 103.065 49.8141 0
596 1 14.0393 103.037 49.829 0
495 1 12.799 102.336 49.7914 0
97 1 1.62104 104.464 49.8187 0
98 1 2.85961 105.215 49.704 0
198 1 5.40398 105.205 49.8151 0
197 1 4.10088 104.5 49.7168 0
297 1 6.60322 104.474 49.8551 0
298 1 7.84941 105.199 49.9329 0
397 1 9.04896 104.484 49.8889 0
398 1 10.2874 105.219 49.907 0
497 1 11.5674 104.51 49.8161 0
498 1 12.7962 105.186 49.7963 0
597 1 14.0743 104.497 49.7941 0
99 1 2.8406 106.673 49.8589 0
199 1 5.36407 106.652 49.8303 0
399 1 10.342 106.637 49.9136 0
499 1 12.8023 106.659 49.8007 0
100 1 1.59695 107.38 49.9752 0
200 1 4.09138 107.35 49.8575 0
300 1 6.65072 107.367 49.9591 0
400 1 9.10597 107.379 49.9708 0
500 1 11.5826 107.365 49.8073 0
600 1 14.0658 107.347 49.7935 0
85 1 1.63562 91.4834 50.4397 0
185 1 4.12136 91.5104 50.2651 0
285 1 6.64365 91.5045 50.3609 0
385 1 9.12824 91.5393 50.2431 0
485 1 11.6613 91.5084 50.1968 0
585 1 14.0956 91.4902 50.0692 0
86 1 2.87569 92.2181 50.2894 0
87 1 2.87556 93.6505 50.1898 0
186 1 5.36558 92.2528 50.2661 0
187 1 5.37957 93.718 50.2009 0
286 1 7.86669 92.2353 50.3085 0
287 1 7.85785 93.647 50.2117 0
386 1 10.3689 92.2224 50.109 0
387 1 10.3689 93.6445 50.0604 0
486 1 12.8918 92.2331 50.0818 0
88 1 1.61233 94.439 50.2734 0
188 1 4.09475 94.4109 50.2068 0
288 1 6.61734 94.3908 50.1957 0
388 1 9.12123 94.3756 50.1987 0
89 1 1.60104 95.8673 50.2088 0
90 1 2.8636 96.5982 50.0479 0
189 1 4.12287 95.882 50.1179 0
289 1 6.6275 95.8202 50.0462 0
389 1 9.137 95.8482 50.0584 0
299 1 7.84599 106.629 50.0274 0
601 1 16.5711 0.858911 49.9256 0
701 1 19.0558 0.853563 49.8587 0
702 1 20.3071 1.57053 49.9288 0
801 1 21.5723 0.891223 49.8774 0
802 1 22.8014 1.61157 49.8409 0
901 1 24.0403 0.948972 49.8835 0
902 1 25.3138 1.65956 49.938 0
803 1 22.7744 3.06493 49.9057 0
502 1 15.3264 1.58999 50.0102 0
602 1 17.776 1.58049 50.0227 0
1002 1 27.8192 1.71391 50.1365 0
1001 1 26.5296 0.940051 50.0903 0
503 1 15.2519 3.02351 50.1186 0
603 1 17.7833 3.02535 50.1378 0
604 1 16.527 3.75796 50.2167 0
704 1 19.0265 3.71167 50.1828 0
703 1 20.2629 3.02223 50.0778 0
804 1 21.5151 3.78155 50.0613 0
904 1 24.0257 3.78035 50.018 0
903 1 25.3248 3.08545 50.0442 0
1003 1 27.7746 3.15396 50.2022 0
1004 1 26.5203 3.84318 50.1895 0
605 1 16.5334 5.15567 50.3466 0
705 1 19.028 5.15481 50.2725 0
805 1 21.5297 5.18963 50.1606 0
905 1 24.0657 5.23468 50.2063 0
1005 1 26.5522 5.25674 50.2302 0
506 1 15.2832 5.88976 50.2959 0
606 1 17.7736 5.85497 50.3278 0
706 1 20.2882 5.94266 50.2739 0
806 1 22.803 5.87883 50.1318 0
906 1 25.3136 5.98311 50.226 0
1006 1 27.7696 5.9845 50.221 0
507 1 15.2746 7.34584 50.4495 0
608 1 16.5598 8.05414 50.5506 0
607 1 17.775 7.33106 50.4005 0
708 1 19.0287 8.07618 50.3922 0
707 1 20.2835 7.3382 50.2562 0
807 1 22.7899 7.33947 50.1116 0
808 1 21.5267 8.03585 50.2382 0
908 1 24.0446 8.06651 50.2373 0
907 1 25.2997 7.39567 50.2184 0
1007 1 27.7723 7.43882 50.2706 0
1008 1 26.5038 8.12415 50.2661 0
510 1 15.2658 10.252 50.5702 0
609 1 16.5012 9.48847 50.5877 0
610 1 17.7635 10.2111 50.6662 0
709 1 19.0127 9.49529 50.5652 0
710 1 20.2845 10.2316 50.5941 0
810 1 22.7539 10.2568 50.3288 0
809 1 21.5036 9.51348 50.3959 0
909 1 23.9863 9.53131 50.3651 0
910 1 25.2746 10.2294 50.3198 0
1009 1 26.5124 9.55125 50.2333 0
1010 1 27.7804 10.2781 50.1417 0
511 1 15.263 11.6938 50.7899 0
611 1 17.7642 11.6406 50.9171 0
711 1 20.2643 11.648 50.7702 0
811 1 22.7611 11.6905 50.4933 0
911 1 25.2849 11.6823 50.2932 0
1011 1 27.7526 11.7048 50.1323 0
612 1 16.5025 12.373 50.997 0
712 1 19.0353 12.3568 50.8784 0
812 1 21.5047 12.3836 50.7747 0
912 1 24.0146 12.402 50.3594 0
1012 1 26.5268 12.4394 50.2333 0
514 1 15.3664 14.5113 50.9998 0
613 1 16.5752 13.792 51.025 0
614 1 17.7833 14.5446 51.1276 0
713 1 19.025 13.8234 51.0664 0
714 1 20.3002 14.5724 51.0979 0
813 1 21.4991 13.8855 50.8709 0
814 1 22.7917 14.6148 50.7046 0
913 1 24.0383 13.8706 50.49 0
914 1 25.2654 14.6061 50.3848 0
1014 1 27.791 14.6241 50.3077 0
1013 1 26.5572 13.8953 50.264 0
515 1 15.3203 15.933 51.0757 0
616 1 16.5511 16.7226 51.1389 0
615 1 17.8228 16.0016 51.0791 0
716 1 19.0279 16.7633 51.0393 0
715 1 20.3046 16.0258 51.1296 0
816 1 21.5348 16.6995 50.94 0
815 1 22.7776 16.0246 50.7352 0
916 1 24.0301 16.7371 50.5371 0
915 1 25.2416 16.0306 50.4395 0
1016 1 26.5402 16.7753 50.3987 0
1015 1 27.7992 16.0572 50.3294 0
617 1 16.5889 18.1748 51.066 0
717 1 19.0534 18.2062 50.9519 0
817 1 21.5383 18.1281 50.8241 0
917 1 24.0175 18.1609 50.5905 0
1017 1 26.5135 18.1923 50.4809 0
830 1 22.887 31.7084 49.677 0
829 1 21.6126 31.0992 49.8822 0
929 1 24.1035 31.0394 49.7461 0
1029 1 26.6236 31.0973 49.9454 0
731 1 20.3869 33.2463 49.8729 0
730 1 20.3897 31.8208 49.939 0
831 1 22.8463 33.2022 49.606 0
931 1 25.3708 33.2095 49.4963 0
930 1 25.3669 31.7747 49.6851 0
1031 1 27.8564 33.2785 49.7277 0
1030 1 27.8316 31.8333 49.9017 0
732 1 19.1319 33.9635 49.9279 0
832 1 21.5787 33.9521 49.6465 0
932 1 24.1311 33.9138 49.469 0
1032 1 26.6269 33.9033 49.5916 0
733 1 19.1114 35.4097 49.9221 0
734 1 20.3407 36.1461 49.7812 0
833 1 21.613 35.3753 49.6751 0
834 1 22.8442 36.1058 49.5888 0
933 1 24.101 35.3543 49.5505 0
934 1 25.3723 36.0886 49.5471 0
1033 1 26.6295 35.3938 49.6213 0
1034 1 27.8342 36.1397 49.7722 0
518 1 15.3371 18.9218 50.8597 0
618 1 17.7914 18.8907 50.9632 0
718 1 20.3299 18.8721 50.8282 0
719 1 20.3207 20.2585 50.737 0
818 1 22.7707 18.8512 50.7817 0
918 1 25.2827 18.8894 50.5204 0
1018 1 27.7587 18.9401 50.4236 0
519 1 15.3532 20.3593 50.666 0
620 1 16.5802 21.033 50.656 0
619 1 17.8235 20.3153 50.7979 0
720 1 19.0652 20.9797 50.7391 0
819 1 22.8349 20.2969 50.7533 0
820 1 21.5779 21.0315 50.7578 0
920 1 24.037 21.0511 50.6461 0
919 1 25.2775 20.3462 50.5916 0
1019 1 27.7902 20.336 50.5368 0
1020 1 26.5472 21.0836 50.5725 0
522 1 15.335 23.2467 50.7489 0
621 1 16.6147 22.4746 50.7329 0
721 1 19.0522 22.4614 50.6685 0
622 1 17.849 23.1788 50.7329 0
722 1 20.3139 23.1643 50.592 0
822 1 22.7966 23.2196 50.7063 0
821 1 21.58 22.4839 50.7085 0
921 1 24.0459 22.507 50.6902 0
922 1 25.2838 23.2424 50.7346 0
1022 1 27.7772 23.1827 50.6812 0
1021 1 26.5378 22.5172 50.7051 0
523 1 15.3932 24.6575 50.6735 0
623 1 17.8584 24.6233 50.7008 0
723 1 20.3112 24.6133 50.5565 0
823 1 22.8161 24.6496 50.7012 0
923 1 25.3045 24.7226 50.6688 0
1023 1 27.8329 24.6518 50.6108 0
624 1 16.6333 25.3672 50.6866 0
724 1 19.107 25.352 50.5576 0
824 1 21.5598 25.3575 50.6094 0
924 1 24.0896 25.3834 50.6032 0
925 1 24.1345 26.8031 50.4237 0
1024 1 26.5792 25.3756 50.5887 0
526 1 15.3997 27.5212 50.4685 0
625 1 16.6463 26.8315 50.5725 0
725 1 19.0764 26.8099 50.4776 0
626 1 17.8905 27.5585 50.5241 0
726 1 20.3105 27.5357 50.4404 0
825 1 21.586 26.8095 50.5062 0
826 1 22.8522 27.5229 50.3783 0
926 1 25.3759 27.5116 50.2807 0
1025 1 26.6536 26.8175 50.3945 0
1026 1 27.8935 27.4981 50.3441 0
527 1 15.3827 28.9521 50.2949 0
628 1 16.6498 29.7222 50.2771 0
627 1 17.8505 29.0028 50.3197 0
728 1 19.1361 29.7028 50.1823 0
727 1 20.3385 28.9592 50.2453 0
828 1 21.5687 29.6539 50.1124 0
827 1 22.8498 28.9169 50.2097 0
928 1 24.1632 29.6461 50.0671 0
927 1 25.3922 28.9657 50.2215 0
1028 1 26.6376 29.6741 50.137 0
1027 1 27.8573 28.953 50.177 0
629 1 16.6468 31.1345 50.1945 0
729 1 19.1389 31.0795 50.0631 0
530 1 15.3663 31.8095 50.2076 0
531 1 15.4134 33.2665 50.2995 0
630 1 17.9098 31.8227 50.1293 0
631 1 17.9113 33.2527 50.1708 0
632 1 16.6986 34.0111 50.268 0
534 1 15.3587 36.1519 50.2523 0
633 1 16.643 35.4325 50.2628 0
634 1 17.9222 36.122 50.1229 0
735 1 20.3505 37.58 49.7482 0
835 1 22.8436 37.565 49.6237 0
935 1 25.3326 37.5549 49.4932 0
1035 1 27.8361 37.5623 49.7566 0
736 1 19.1348 38.3124 49.9491 0
737 1 19.1283 39.7428 49.9923 0
836 1 21.6157 38.2758 49.715 0
837 1 21.5974 39.7127 49.8285 0
936 1 24.0883 38.2744 49.6006 0
937 1 24.1243 39.712 49.8056 0
1037 1 26.6165 39.7183 49.7244 0
1036 1 26.5873 38.2701 49.6497 0
738 1 20.4018 40.4553 49.9401 0
838 1 22.8636 40.4679 49.884 0
938 1 25.3637 40.457 49.8438 0
1038 1 27.8344 40.442 49.917 0
840 1 21.5957 42.6186 49.9667 0
839 1 22.8561 41.8725 49.8973 0
940 1 24.0911 42.5587 49.9361 0
939 1 25.3715 41.8707 49.922 0
1040 1 26.6124 42.6377 49.9747 0
1039 1 27.819 41.8547 49.9924 0
535 1 15.3336 37.5681 50.1286 0
635 1 17.8696 37.5898 50.1082 0
637 1 16.5878 39.7264 50.1452 0
636 1 16.6075 38.3017 50.1098 0
538 1 15.341 40.4401 50.2087 0
638 1 17.8228 40.4633 50.0949 0
539 1 15.2903 41.8658 50.1783 0
640 1 16.5374 42.5899 50.1164 0
740 1 19.0995 42.5763 50.0644 0
639 1 17.813 41.8805 50.1082 0
739 1 20.3751 41.8765 50.0009 0
542 1 15.347 44.7225 50.2673 0
641 1 16.5794 44.0275 50.2383 0
741 1 19.0974 44.0058 50.2654 0
642 1 17.8703 44.7173 50.1977 0
742 1 20.3029 44.7772 50.2242 0
841 1 21.5853 44.0409 50.155 0
842 1 22.8561 44.7312 50.1443 0
941 1 24.079 43.9949 50.0667 0
942 1 25.2997 44.73 50.0448 0
1041 1 26.6015 44.0827 50.0241 0
1042 1 27.8097 44.7775 50.0467 0
543 1 15.3993 46.1529 50.308 0
643 1 17.8565 46.1681 50.3203 0
743 1 20.3323 46.1713 50.1827 0
843 1 22.8407 46.2064 50.2243 0
943 1 25.334 46.1358 50.1369 0
1043 1 27.8006 46.2213 50.1369 0
644 1 16.6442 46.8847 50.3718 0
744 1 19.073 46.8763 50.3592 0
844 1 21.5831 46.8986 50.1969 0
944 1 24.0822 46.8875 50.2653 0
1044 1 26.5613 46.9296 50.1681 0
546 1 15.3325 49.0811 50.3958 0
645 1 16.582 48.3218 50.4208 0
646 1 17.8326 48.9987 50.4705 0
745 1 19.068 48.2919 50.4412 0
746 1 20.367 49.0064 50.4234 0
845 1 21.6241 48.3471 50.2469 0
846 1 22.8517 49.0589 50.3186 0
945 1 24.1113 48.3377 50.3034 0
946 1 25.3284 49.0761 50.2791 0
1045 1 26.5633 48.4017 50.1468 0
1046 1 27.8238 49.0619 50.0504 0
547 1 15.3717 50.4805 50.426 0
648 1 16.6237 51.1835 50.4654 0
748 1 19.1464 51.1891 50.4589 0
647 1 17.8751 50.4912 50.5168 0
747 1 20.3516 50.5009 50.4213 0
847 1 22.8264 50.5201 50.3628 0
848 1 21.5599 51.2474 50.3944 0
948 1 24.051 51.2229 50.2991 0
947 1 25.3066 50.5073 50.2817 0
1048 1 26.5476 51.2207 50.1136 0
1047 1 27.7797 50.5074 50.0851 0
649 1 16.6016 52.639 50.5342 0
749 1 19.1198 52.6447 50.4496 0
849 1 21.5682 52.6905 50.3864 0
949 1 24.0574 52.6715 50.3055 0
1049 1 26.5534 52.6695 50.2174 0
550 1 15.3067 53.3771 50.6857 0
650 1 17.861 53.4202 50.5683 0
750 1 20.3621 53.4344 50.4398 0
850 1 22.8115 53.4024 50.4401 0
950 1 25.3258 53.4137 50.3201 0
1050 1 27.8127 53.361 50.2378 0
551 1 15.3496 54.8211 50.7823 0
652 1 16.6005 55.5323 50.8276 0
752 1 19.1277 55.5616 50.8031 0
651 1 17.8745 54.8219 50.6986 0
751 1 20.3687 54.8349 50.6391 0
851 1 22.8412 54.8405 50.5118 0
852 1 21.6174 55.5751 50.5877 0
952 1 24.0283 55.5666 50.3783 0
951 1 25.2743 54.8342 50.3752 0
1051 1 27.8046 54.7911 50.209 0
1052 1 26.5456 55.52 50.3004 0
554 1 15.3566 57.6919 50.938 0
653 1 16.6066 56.9704 50.9806 0
654 1 17.8863 57.6809 51.0167 0
753 1 19.1286 56.9603 50.9409 0
754 1 20.3948 57.6991 50.9322 0
853 1 21.6535 57.0163 50.7527 0
854 1 22.8529 57.7262 50.7323 0
953 1 24.0917 57.0214 50.4887 0
954 1 25.3347 57.7026 50.5014 0
1053 1 26.5899 56.9489 50.4019 0
1054 1 27.8333 57.714 50.4297 0
555 1 15.3363 59.1469 50.885 0
655 1 17.8507 59.0923 50.9837 0
755 1 20.3764 59.1074 50.9694 0
855 1 22.8826 59.1 50.8762 0
955 1 25.381 59.1015 50.5255 0
1055 1 27.8334 59.1416 50.4759 0
656 1 16.6091 59.8311 50.9279 0
756 1 19.161 59.8464 51.0049 0
856 1 21.6032 59.821 50.9988 0
956 1 24.0986 59.8092 50.7238 0
1056 1 26.5995 59.8278 50.445 0
558 1 15.3561 61.9995 50.8781 0
657 1 16.6171 61.2837 50.971 0
658 1 17.8836 61.9803 51.0491 0
757 1 19.1464 61.2874 51.0737 0
758 1 20.4057 61.9835 51.0976 0
857 1 21.6223 61.2515 51.134 0
858 1 22.8866 61.9415 51.0427 0
957 1 24.0975 61.2219 50.8161 0
958 1 25.2913 62.0107 50.6476 0
1058 1 27.7977 62.0449 50.5801 0
1057 1 26.5742 61.302 50.4669 0
559 1 15.3718 63.4412 50.9424 0
660 1 16.671 64.1546 50.9727 0
659 1 17.9161 63.4336 51.0611 0
760 1 19.1346 64.1422 51.1457 0
759 1 20.3714 63.3748 51.1207 0
860 1 21.6365 64.0873 51.0959 0
859 1 22.893 63.4012 51.0598 0
960 1 24.0892 64.1614 50.9753 0
959 1 25.2972 63.4778 50.776 0
1059 1 27.8137 63.4711 50.7834 0
1060 1 26.6185 64.1648 50.7474 0
661 1 16.6632 65.5728 51.092 0
761 1 19.1583 65.5969 51.2251 0
861 1 21.6321 65.6141 51.1639 0
961 1 24.0882 65.6107 51.0035 0
1061 1 26.5945 65.6266 50.8163 0
562 1 15.4114 66.2591 51.1461 0
662 1 17.8995 66.3318 51.1072 0
762 1 20.4245 66.2938 51.2525 0
862 1 22.8517 66.3394 51.0803 0
962 1 25.3178 66.3319 50.9047 0
1062 1 27.8207 66.386 50.7685 0
563 1 15.4231 67.6921 51.139 0
664 1 16.6468 68.4896 51.2227 0
663 1 17.8799 67.8052 51.1535 0
764 1 19.1324 68.5036 51.2569 0
763 1 20.3953 67.7713 51.2214 0
863 1 22.891 67.7852 51.0372 0
864 1 21.6423 68.4945 51.1903 0
964 1 24.1115 68.5028 50.96 0
963 1 25.3318 67.7987 50.9266 0
1063 1 27.8047 67.82 50.734 0
1064 1 26.5738 68.5078 50.8896 0
566 1 15.3945 70.6699 51.1807 0
665 1 16.6193 69.9038 51.262 0
666 1 17.8671 70.6947 51.2788 0
765 1 19.0974 69.9624 51.318 0
766 1 20.3343 70.664 51.1681 0
866 1 22.825 70.6737 51.1305 0
865 1 21.6044 69.9626 51.1924 0
965 1 24.0812 69.9277 51.0339 0
966 1 25.3331 70.6553 51.0572 0
1065 1 26.567 69.9317 50.9199 0
1066 1 27.8037 70.6705 50.8035 0
567 1 15.3867 72.1159 51.1168 0
667 1 17.8886 72.1388 51.1419 0
767 1 20.3648 72.0959 51.117 0
867 1 22.8162 72.1186 51.0969 0
967 1 25.3468 72.131 51.0127 0
1067 1 27.7922 72.07 50.8438 0
668 1 16.6079 72.8519 51.0282 0
768 1 19.1596 72.8199 51.1146 0
868 1 21.5706 72.835 51.1323 0
968 1 24.0821 72.7911 51.0123 0
1068 1 26.5557 72.8381 50.9092 0
570 1 15.3643 75.005 50.9316 0
669 1 16.6119 74.2936 51.0232 0
670 1 17.8742 74.9418 50.9259 0
769 1 19.1273 74.2513 51.0512 0
770 1 20.3881 75.0058 51.0732 0
870 1 22.8434 74.9368 50.9937 0
869 1 21.6074 74.2886 51.0531 0
969 1 24.0938 74.2737 50.8941 0
970 1 25.3524 75.0239 50.8162 0
1069 1 26.5565 74.258 50.8118 0
1070 1 27.8136 74.9441 50.6975 0
571 1 15.3778 76.4648 50.8103 0
672 1 16.6884 77.1354 50.6798 0
671 1 17.8802 76.3843 50.7514 0
772 1 19.1445 77.1152 50.7089 0
771 1 20.3918 76.454 50.9103 0